/*--------------------------------*- C++ -*----------------------------------*\
  =========                 |
  \\      /  F ield         | OpenFOAM: The Open Source CFD Toolbox
   \\    /   O peration     | Website:  https://openfoam.org
    \\  /    A nd           | Version:  8
     \\/     M anipulation  |
\*---------------------------------------------------------------------------*/
/*   Windows 32 and 64 bit porting by blueCAPE: http://www.bluecape.com.pt   *\
|  Based on Windows porting (2.0.x v4) by Symscape: http://www.symscape.com   |
\*---------------------------------------------------------------------------*/
FoamFile
{
    version     2.0;
    format      ascii;
    class       volScalarField;
    location    "0/vegetation";
    object      viewFactorField;
}
// * * * * * * * * * * * * * * * * * * * * * * * * * * * * * * * * * * * * * //

dimensions      [0 0 0 0 0 0 0];

internalField   uniform 0;

boundaryField
{
    left
    {
        type            calculated;
        value           nonuniform List<scalar> 0();
    }
    right
    {
        type            calculated;
        value           nonuniform List<scalar> 
28
(
1.082906
1.0794147
1.082906
1.082906
1.082906
1.082906
1.082906
1.082906
1.082906
1.082906
1.082906
1.082906
1.082906
1.0794147
1.082906
1.0794147
1.082906
1.082906
1.082906
1.082906
1.082906
1.0794147
1.082906
1.082906
1.082906
1.082906
1.082906
1.082906
)
;
    }
    back
    {
        type            calculated;
        value           nonuniform List<scalar> 0();
    }
    front
    {
        type            calculated;
        value           uniform 1.0539273;
    }
    bottom
    {
        type            calculated;
        value           nonuniform List<scalar> 
116
(
1.0469497
0.9281003
1.0469497
0.97248483
1.0933305
1.1311654
1.0190437
0.98949776
1.0341286
1.0190437
1.0933305
1.0341286
0.98949776
1.011544
0.92152538
1.0092507
1.011544
1.0030668
1.0184857
0.92152538
1.0618346
1.0358287
1.0030668
1.0337565
1.0337565
0.97483132
1.0065983
1.0065983
0.97248483
1.0252963
1.0252963
0.88110802
1.0092507
0.99685933
0.92245934
0.91876107
1.0035613
1.0092507
1.0469497
1.0469497
1.0341286
1.1311654
0.9281003
0.9281003
0.9281003
0.97248483
0.97248483
0.97248483
1.0933305
1.0933305
1.0933305
1.1311654
1.0341286
1.1311654
1.0469497
1.0190437
0.98949776
0.98949776
0.88110802
1.0184857
1.0184857
1.0030668
1.0190437
0.99685933
1.0184857
1.0030668
1.0358287
1.0341286
1.0750489
1.0750489
1.0750489
1.0337565
1.0337565
1.011544
0.92152538
0.92152538
0.92152538
0.99685933
0.99685933
1.0092507
1.011544
1.0065983
1.0065983
1.0035613
1.0252963
1.0252963
1.0092507
1.0035613
1.0035613
0.91876107
0.91876107
0.92152538
0.97483132
0.97483132
0.97483132
1.0065983
1.0065983
0.97248483
0.88110802
0.88110802
0.88110802
0.92245934
0.92245934
0.92245934
0.91876107
0.91876107
0.91876107
1.0750489
1.0750489
0.98949776
1.0618346
1.0618346
1.0618346
1.0750489
1.0358287
1.0358287
)
;
    }
    top
    {
        type            calculated;
        value           nonuniform List<scalar> 
122
(
1.0467623
1.0854014
1.0642968
1.0467623
1.0053696
1.0467623
1.0467623
1.0053696
1.0854014
1.0752603
1.0752603
1.0752603
1.0642968
1.0752603
1.0752603
1.0854014
1.0752603
1.0642968
1.0053696
1.0053696
1.0854014
1.0467623
1.0467623
1.0053696
1.0467623
1.0854014
1.0854014
1.0854014
1.0854014
1.0642968
1.0642968
1.0642968
1.0752603
1.0752603
1.0854014
1.0854014
1.0752603
1.0642968
1.0642968
1.0752603
1.0752603
1.0752603
1.0053696
1.0053696
1.0053696
1.0053696
1.0053696
1.0053696
1.0854014
1.0854014
1.0854014
1.0642968
1.0642968
1.0642968
1.0752603
1.0854014
1.0854014
1.0854014
1.0854014
1.0467623
1.0467623
1.0467623
1.0467623
1.0467623
1.0467623
1.0053696
1.0467623
1.0467623
1.0467623
1.0642968
1.0642968
1.0752603
1.0752603
1.0752603
1.0752603
1.0053696
1.0053696
1.0642968
1.0053696
1.0053696
1.0053696
1.0053696
1.0053696
1.0053696
1.0854014
1.0854014
1.0467623
1.0854014
1.0854014
1.0854014
1.0642968
1.0642968
1.0642968
1.0467623
1.0467623
1.0467623
1.0854014
1.0854014
1.0854014
1.0854014
1.0467623
1.0467623
1.0854014
1.0854014
1.0854014
1.0854014
1.0642968
1.0642968
1.0642968
1.0752603
1.0752603
1.0752603
1.0752603
1.0854014
1.0854014
1.0854014
1.0854014
1.0854014
1.0854014
1.0053696
1.0053696
1.0053696
)
;
    }
    tower
    {
        type            calculated;
        value           nonuniform List<scalar> 
881
(
1.0552051
1.0120588
1.0133123
1.0087145
1.0157175
1.0087646
1.0086024
1.0099126
1.0213309
1.0083482
1.0095185
1.0085365
1.0135527
1.0111217
1.0126437
1.0148174
1.0150883
1.0166711
1.0081017
1.008892
1.0094514
1.0089641
1.0104921
1.0106801
1.0084567
1.0107436
1.0105954
1.0104401
1.011643
1.0121644
1.0175886
1.0231037
1.0189628
1.0081737
1.0100958
1.0099035
1.0092535
1.0096849
1.0092057
1.0112305
1.0109261
1.0083172
1.010308
1.0104501
1.0076898
1.0136339
1.0127104
1.0117256
1.0120192
1.0148852
1.0166228
1.0229689
1.0191404
1.0102323
1.0100001
1.0086563
1.0106109
1.0108002
1.0113242
1.0110186
1.0108655
1.0107143
1.0104155
1.0105686
1.0017298
0.96175128
0.98272506
0.97615556
1.0159876
0.98763429
0.99330407
0.97989301
0.99237928
1.0032991
0.98945739
0.99235273
0.97661958
0.96149978
0.95767013
0.97626354
0.9764722
0.94456363
0.95666037
0.94263359
0.99343947
0.98225403
0.99113489
0.99339054
0.97634011
0.97053456
0.96230382
0.96821728
0.96836667
0.96244657
0.96842591
0.977984
0.98203199
0.9859701
0.98314608
0.98903102
0.98972862
0.98902052
0.98876724
0.98674617
0.98845189
0.9603951
0.96813768
0.96769144
0.9661847
0.9598755
0.96744079
0.95082171
0.95835166
0.96166469
0.96553894
0.95257027
0.96279528
0.95750686
0.96256499
1.028381
0.95706715
0.98218956
0.98907438
0.98059894
0.99398721
1.0107694
1.0353887
1.0423343
0.99561656
0.91276204
0.96196167
0.9637588
0.97455543
1.012246
0.99335994
0.98797348
0.97654533
0.97047523
0.97054405
1.0084824
0.98655092
0.98543345
0.9836103
1.0076113
0.97824904
0.98285898
0.98245193
1.0100233
0.98735915
0.99078241
0.98913124
0.98972946
0.99167102
0.9894611
0.96911641
0.97668332
0.9700541
0.96119667
0.96356072
0.96032603
0.9585303
0.97652325
0.97043713
0.97021377
0.96861382
0.97691878
0.96642815
0.94675712
0.9490671
0.95943501
0.95548295
0.97656772
0.96303938
0.96547375
0.99365854
0.95447833
0.97243602
1.0080531
0.94633649
1.0205157
1.0057646
0.97238687
1.0093155
0.92446792
1.0190446
0.92499864
0.94705176
0.96214226
0.96419053
0.98752098
0.98347156
0.98713617
0.9839576
0.96247778
0.96430446
0.96635639
0.97301754
0.9634528
0.97043149
0.98941555
0.99274826
0.99009157
0.96083181
0.96266185
0.95925938
0.96222707
0.94887822
0.95425713
0.95412277
0.95579393
0.99383819
0.98020899
0.95175387
0.94879475
0.94869049
0.94937855
0.9611078
0.972184
0.97238886
0.96753346
0.96765812
0.96371065
0.95363748
0.95936558
0.95240647
0.91423163
0.92123529
0.99141286
0.99249179
0.94747082
0.99460493
0.99356942
0.99265559
0.99285064
0.97612408
0.97453605
0.97055643
0.97258869
0.96592019
0.96827682
0.96621643
0.96832302
0.96852251
0.96632192
0.97769724
0.97947006
0.98157684
0.98081286
0.98535735
0.98510994
0.98264588
0.98416939
0.98841829
0.98913416
0.99052989
0.98982762
0.98839249
0.98901778
0.98808227
0.98894904
0.98610422
0.98742841
0.98776396
0.98800209
0.96578058
0.96802983
0.96510274
0.96788421
0.96317508
0.96670573
0.96711813
0.96475816
0.95787752
0.96050078
0.96240494
0.96475768
0.96383854
0.9592085
0.99588783
1.0038244
0.93277759
0.90333354
1.0045184
0.98174257
0.9864579
0.98661298
0.99052485
0.98116333
0.98377193
0.99042891
0.99222591
0.96778852
0.93241787
0.95842305
0.96231079
1.0007116
0.96402741
0.96545261
0.99765285
0.97633967
0.97295824
0.96454869
0.96925071
0.99140315
0.99238337
0.99452699
0.99334583
0.97467765
0.97683107
0.97052486
0.97252046
0.9726695
0.97055413
0.98565465
0.98710694
0.98467549
0.98401585
0.97979045
0.97848874
0.9811845
0.98285396
0.9880695
0.98792142
0.98866525
0.98978688
0.99053233
0.98973504
0.98965901
0.99013056
0.96952312
0.97176248
0.96983008
0.97240541
0.97039448
0.97250487
0.97032377
0.97247945
0.96802518
0.97143623
0.97744566
0.97351262
0.96730651
0.97001947
0.99577523
0.98039813
0.98336364
1.0273482
1.028426
1.0249122
1.0301841
1.0277245
1.0332355
1.0310076
1.0301158
1.0120136
1.0136824
1.0116751
1.0144226
1.0137358
1.014743
1.0144428
1.015929
1.0376966
1.0374218
1.0093987
1.0092291
1.0095603
1.0108761
1.0098677
1.0098087
1.0302715
1.0159358
1.0168145
1.0095495
1.0219917
1.0398104
1.009967
1.0094558
1.011812
1.0153718
1.0086964
1.0099785
1.0098835
1.0221589
1.0193237
1.0169785
1.0172832
1.0473189
1.035735
1.0234431
1.0294932
1.0316423
1.0100929
1.0203771
1.050715
1.0585306
1.0617784
1.0601845
1.0465753
1.054298
1.0611563
1.0565535
1.0441884
1.0148719
1.0303622
1.0167162
1.0306479
1.0222933
1.0231152
1.0212249
1.0233558
1.0192698
1.0416153
1.0250509
1.0327032
1.0442154
1.0356096
1.0503091
1.0337186
1.0416451
1.0475418
1.0095638
1.0140563
1.0104593
1.0101969
1.0144519
1.0105222
1.0187805
1.0149499
1.0169267
0.96392262
1.0613911
1.0554558
0.96331835
1.0670043
1.0720817
1.0371658
1.0529963
1.0515874
0.96107642
1.0848639
1.085138
1.0365922
1.052564
1.0492344
0.95081561
1.059166
1.0634912
0.95838763
1.0837739
1.081805
1.0101375
1.0205854
1.0159623
1.0211995
0.99586436
1.0290533
1.017494
1.0121336
1.0160498
1.0103997
1.0020626
1.0135512
0.96884506
0.9618597
0.96368059
0.94806122
1.0211015
1.0207068
1.0200401
1.0198607
1.0192849
1.0197312
0.97109498
0.98247887
1.0005
0.96299911
1.0191158
1.0174902
1.0182246
1.0168377
1.0181695
1.0181698
0.97048461
0.9601202
0.96155719
0.97672168
0.9564204
0.96430033
0.96441628
0.95312264
1.0539084
1.0436557
1.0492186
0.964063
1.0431584
1.0493301
1.0397653
1.0391871
1.0442714
0.97888715
0.97051399
0.96850766
0.9802515
1.02189
1.0249431
1.0232299
1.0276022
1.0263037
1.0251167
0.97488518
0.99722836
0.98526382
0.98320605
0.96308837
0.95745283
0.95195445
0.95928546
0.96434882
0.96066162
1.0372212
0.95729461
1.0304515
1.0341119
1.0275986
1.0289404
0.97397888
0.98079894
0.98220425
0.96715619
0.96296211
0.95870058
0.95679217
0.97092635
0.96864631
0.97771324
0.96633781
0.9763928
0.95347065
0.97167721
0.97141067
0.95148074
0.93423816
0.95336208
0.98874653
0.91720933
0.93315182
0.95183384
0.94786779
0.94287318
0.9753294
0.96512961
0.96929364
0.97281012
0.9644274
0.98657341
0.99176419
0.99087887
0.94276385
0.95350054
0.96199691
0.94023568
0.94301601
0.96501708
0.94596784
0.96005573
0.93099675
0.95023143
0.93714193
0.94854397
0.93876268
0.95767428
0.94003077
0.95704239
1.0582931
1.0537781
1.0622422
0.96302199
1.0800725
1.0764869
1.0563451
1.0684855
1.0656802
0.96170411
1.0827408
1.0844357
1.0723917
1.0618608
1.07246
1.070556
1.0612412
1.0718637
1.0524028
1.0491824
1.0557964
0.95258397
1.0720232
1.0678565
1.0518111
1.0624387
1.059218
1.0715393
1.0600353
1.0700324
0.9571741
1.0758082
1.0791043
1.0584726
1.0653867
1.0679451
0.99504368
0.9963767
1.0261185
1.0291683
1.0266872
1.0339902
1.0319604
1.0352064
1.0129112
1.014414
1.0128981
1.0174514
1.0159455
1.0175189
1.0241243
1.0226004
1.0245519
0.96616187
1.0375073
1.0436515
1.0390665
1.0114667
1.0103028
1.0114883
1.0189861
1.0207917
1.0191184
0.97221911
0.96800418
0.95501299
1.0226779
1.0287517
1.023682
1.0255947
1.0328625
1.0092818
1.0122066
1.0092348
1.0123403
1.0112485
1.0112205
1.0112689
1.0137216
1.0111895
0.99151383
1.0129431
1.0173843
0.99475787
1.0092929
1.0092446
1.0097939
1.0102212
1.0096613
1.0297726
1.0247414
1.0245271
1.016832
1.0204301
1.0203756
1.0237117
1.0360755
0.99460156
1.0099531
1.0094785
1.0099801
1.0099618
0.97439731
0.95333488
0.95996615
0.9725303
0.96822445
0.96102457
0.96603184
0.96612592
0.96647873
0.96013172
0.94513867
0.97912044
0.95616853
0.95541991
0.98040755
0.96351256
0.96033125
0.984531
0.94759305
0.94276361
0.98362802
0.95392414
0.95509846
0.98851079
0.99062628
0.98836608
0.92642554
0.92956474
0.9882767
0.91885894
0.91966582
0.9867631
0.91786368
0.92473959
0.98732098
0.91386483
0.91593966
1.0114647
1.018869
0.96560388
0.96538105
0.96381204
0.96433357
0.9564621
0.96148807
0.96041974
1.0492346
0.99606935
1.0192019
1.0150536
1.0196535
1.0298953
1.024684
1.0243456
1.0165518
1.0203278
1.0200111
1.0298999
1.0277205
1.0272419
1.0253542
1.0228861
1.0249604
1.0215203
1.0246829
1.0224393
1.0202479
1.0194686
1.0208618
0.95578263
0.98757457
0.9618402
1.0389191
1.0365984
1.0343569
1.0269597
1.0266996
1.0289492
1.0358922
1.0294761
1.0319545
1.0465831
1.0384664
1.0403365
1.0486115
1.0433621
1.0418687
1.0328935
1.0374084
1.0363928
1.0456554
1.0418739
1.0405994
0.98559017
0.98777833
0.98463942
0.98911041
1.0119984
1.0130056
1.0117416
1.0096521
1.0106772
1.0106373
1.0144163
1.0128959
1.0129018
1.0104052
1.0116026
1.0115268
1.0164808
1.0147039
1.0156251
1.0165628
1.0187399
1.0168995
0.97020873
0.94735641
0.95055386
0.91836674
0.9702597
0.96752902
0.98046413
0.97995595
0.99138426
0.98409104
0.97171419
0.97569607
0.96725766
0.97452155
0.97108377
0.97967886
0.99578443
0.99136872
1.0027795
1.000867
0.98768319
0.99202276
0.99310433
0.98789848
0.98671505
0.99953625
0.97594075
1.0014662
0.96998891
0.96831187
0.96274152
0.98075669
0.96752822
0.96372886
0.99183047
0.97130169
0.97840762
0.97723118
0.9886654
0.98829806
0.96408941
0.97478464
0.98992678
0.97673582
0.98173919
1.0015399
0.97942787
0.99036032
1.053014
1.0455703
1.0455376
1.0525971
1.0444926
1.0451977
1.0517521
1.0453213
1.0447465
1.0506558
1.0432126
1.0440021
0.97249845
0.96855885
1.015967
1.017655
1.0175857
1.0209918
1.0193051
1.0192262
0.99142727
0.99447538
0.9748913
0.97273153
0.97288538
0.98614316
0.98515864
0.98010912
0.98149952
0.98868591
0.9892869
0.99058599
0.99042777
0.97206624
0.97226703
0.97251916
0.97251508
0.97127581
0.97418575
0.97100479
0.9956447
0.98344367
)
;
    }
    air_to_vegetation
    {
        type            calculated;
        value           uniform 1.0558328;
    }
    procBoundary15to11
    {
        type            processor;
        value           uniform 0;
    }
    procBoundary15to16
    {
        type            processor;
        value           uniform 0;
    }
    procBoundary15to17
    {
        type            processor;
        value           uniform 0;
    }
}


// ************************************************************************* //
