/*--------------------------------*- C++ -*----------------------------------*\
  =========                 |
  \\      /  F ield         | OpenFOAM: The Open Source CFD Toolbox
   \\    /   O peration     | Website:  https://openfoam.org
    \\  /    A nd           | Version:  8
     \\/     M anipulation  |
\*---------------------------------------------------------------------------*/
/*   Windows 32 and 64 bit porting by blueCAPE: http://www.bluecape.com.pt   *\
|  Based on Windows porting (2.0.x v4) by Symscape: http://www.symscape.com   |
\*---------------------------------------------------------------------------*/
FoamFile
{
    version     2.0;
    format      ascii;
    class       volScalarField;
    location    "0/vegetation";
    object      viewFactorField;
}
// * * * * * * * * * * * * * * * * * * * * * * * * * * * * * * * * * * * * * //

dimensions      [0 0 0 0 0 0 0];

internalField   uniform 0;

boundaryField
{
    left
    {
        type            calculated;
        value           nonuniform List<scalar> 0();
    }
    right
    {
        type            calculated;
        value           nonuniform List<scalar> 0();
    }
    back
    {
        type            calculated;
        value           nonuniform List<scalar> 0();
    }
    front
    {
        type            calculated;
        value           uniform 1.0133844;
    }
    bottom
    {
        type            calculated;
        value           nonuniform List<scalar> 
171
(
1.0598031
0.94634983
1.0598031
1.0463644
0.83090707
0.94447257
1.0279848
0.83090707
1.020826
1.0279848
0.84023238
0.84023238
1.0279937
1.0554255
1.0578655
0.90357343
1.0083386
1.0279937
1.0649853
0.96293878
0.96553617
0.84023238
0.77554139
0.84023238
1.0578655
0.98394048
1.0083386
0.90357343
1.0065888
0.96553617
1.0758459
1.0758459
0.95468422
1.0061617
1.0061617
1.0463644
0.96553617
0.96553617
0.91008745
0.96293878
0.94608633
0.94608633
0.88894173
0.95468422
1.0554255
1.0006298
1.0435098
1.064398
0.89577053
0.82471913
0.96903222
1.0649853
0.88678546
0.91008745
0.91008745
0.71477542
0.71477542
0.88678546
0.88894173
1.0368323
1.0435098
0.82471913
0.82471913
0.82471913
1.0649853
1.0649853
1.0065888
1.0065888
1.0598031
1.020826
1.0649853
0.94634983
0.94634983
0.94634983
1.0598031
1.0061617
1.0463644
1.0463644
0.94447257
0.94447257
0.94447257
1.0279848
1.0279848
1.0279848
0.94608633
0.94608633
0.83090707
1.020826
1.0083386
1.020826
1.0279848
1.0083386
1.0083386
1.0065888
0.84023238
1.0758459
1.0758459
1.0279937
1.0554255
1.0554255
1.0554255
0.97020258
0.97020258
1.0578655
0.90357343
0.90357343
0.90357343
1.064398
1.064398
1.0435098
1.0279937
1.0061617
1.064398
1.0649853
0.96903222
1.0649853
0.96293878
0.96293878
0.96293878
0.96553617
1.0065888
0.91008745
0.96553617
0.77554139
0.77554139
0.77554139
1.0065888
1.0065888
1.0065888
1.0006298
1.0006298
0.98394048
0.98394048
0.98394048
1.0435098
1.0368323
1.0368323
1.0368323
1.0368323
0.90357343
1.0065888
0.84023238
0.95468422
0.95468422
0.95468422
1.0061617
1.0061617
1.0061617
0.83090707
0.83090707
0.88894173
0.95468422
0.97020258
0.97020258
0.89577053
0.89577053
0.89577053
0.88678546
0.88678546
0.71477542
0.71477542
0.88678546
0.88894173
1.0368323
1.0368323
1.0578655
1.0006298
1.0006298
0.96903222
0.96903222
0.96903222
)
;
    }
    top
    {
        type            calculated;
        value           nonuniform List<scalar> 
91
(
1.0369597
0.98508086
1.0237731
1.0369597
1.0237731
1.0369597
1.0027903
1.0027903
1.0237731
1.0237731
1.0369597
1.0027903
0.98508086
0.98508086
0.98508086
0.98508086
1.0237731
1.0237731
1.0027903
1.0369597
1.0027903
0.98508086
0.98508086
0.98508086
1.0027903
1.0237731
1.0237731
1.0237731
1.0237731
1.0237731
1.0237731
1.0369597
1.0369597
1.0369597
0.98508086
0.98508086
1.0237731
0.98508086
1.0027903
1.0027903
1.0027903
0.98508086
1.0369597
1.0027903
1.0027903
1.0027903
1.0369597
1.0369597
1.0369597
1.0369597
1.0369597
1.0369597
1.0237731
1.0237731
1.0237731
1.0369597
1.0369597
1.0237731
1.0369597
1.0369597
1.0369597
1.0027903
1.0369597
1.0027903
0.98508086
0.98508086
0.98508086
1.0237731
1.0237731
1.0237731
1.0027903
1.0027903
1.0027903
0.98508086
0.98508086
0.98508086
1.0237731
1.0237731
1.0237731
1.0027903
1.0027903
1.0027903
0.98508086
0.98508086
0.98508086
1.0027903
1.0027903
1.0027903
1.0369597
1.0369597
1.0027903
)
;
    }
    tower
    {
        type            calculated;
        value           nonuniform List<scalar> 
829
(
0.78770801
0.86966961
0.88274357
0.87099366
0.87811877
0.91927352
0.84676422
0.84859232
0.8503091
0.89765417
0.88476071
0.8952697
0.90684471
0.81773745
0.83574355
0.83202733
0.92286798
0.83321519
0.91076475
0.8384816
0.89786792
0.90828424
0.90265444
0.90631829
1.0066703
1.0055727
1.0030301
1.0384459
1.0027419
1.004713
1.0087649
1.003724
1.0042094
1.0105286
1.0026947
1.0066448
1.0059298
1.0075311
1.0077143
1.0064842
1.0093427
0.84342153
1.0330361
1.010606
1.0033697
1.0040297
1.0043932
1.0160982
1.0136781
1.0131523
1.0025377
1.003735
1.0035437
1.0052852
1.0059911
1.00669
1.0074409
1.0064698
1.0048154
1.0074791
1.0040754
1.005273
0.80062403
1.0072222
1.0039713
1.0049334
1.0037637
1.0053662
1.0048501
1.0130759
1.0082419
1.0108247
1.0163999
1.0140135
1.0024525
1.00354
1.0034554
0.89419051
0.88570207
1.0067934
1.0076331
1.0060554
1.0067825
1.0083164
1.0037106
1.0067308
1.0050663
0.79497461
0.79492328
1.0040467
1.0044252
1.0054243
1.0048853
1.0087797
1.0112886
1.0037509
1.003547
1.0035632
1.0034647
0.86139195
0.89213224
0.86087084
0.90347508
0.88372423
0.90157571
0.95693008
0.97341584
0.85388872
0.80744022
0.94996809
0.87646938
0.83271335
0.83061172
0.97503454
0.96402439
0.9648299
0.97431842
0.97581123
0.94967669
0.97392058
0.96402339
0.9638019
0.97422041
0.97345402
0.95238019
0.96369331
0.84887522
0.82473241
0.95532655
0.95471306
0.89770551
0.97612398
0.97678875
0.95401263
0.95859327
0.94799507
0.84709595
0.84682147
0.82166058
0.90672097
0.7924501
0.95471938
0.84554356
0.89931948
0.89849981
0.96412629
0.96865968
0.96875818
0.96947565
0.96423167
0.96886129
0.97677195
0.97351479
0.95923903
0.9760886
0.96401213
0.96866268
0.96866593
0.96836105
0.96398899
0.96864012
0.96323753
0.96326625
0.9467496
0.9672983
0.9681766
0.96333018
0.96746468
0.97244957
0.96195185
0.93881659
0.96867523
0.94750261
0.85333098
0.95145682
0.96941937
0.97633183
0.96185886
0.97657624
0.97688391
0.84379966
0.86299821
0.80051129
0.8949249
0.78836107
0.9550736
0.85373118
0.8883034
0.90098002
0.86976533
0.84431797
0.8087386
0.9014608
0.90900214
0.9710055
0.97492524
0.97050351
0.96403524
0.96545939
0.96636724
0.96460152
0.9749155
0.97028523
0.97042546
0.97394161
0.97755952
0.97656314
0.95333075
0.97894761
0.97724991
0.96993918
0.97418031
0.97025604
0.96402487
0.96545927
0.96521997
0.96388744
0.97424553
0.97027724
0.9702836
0.96973498
0.97284344
0.96891149
0.95445229
0.95709736
0.94511529
0.98311353
0.9633244
0.96509257
0.96356798
0.79408475
0.95720281
0.95078616
0.97867235
0.97611085
0.97880251
0.9793314
0.97947655
0.95742074
0.95438228
0.8255346
0.81741746
0.8697727
0.83295039
0.80719627
0.822377
0.94872099
0.91279836
0.87493796
0.88953333
0.90061494
0.89529149
0.96406523
0.96556986
0.96439117
0.96568602
0.96402273
0.96545254
0.96394891
0.96542919
0.96067202
0.96495019
0.96326597
0.96457454
0.96343961
0.96465212
0.97990755
0.97951328
0.97611891
0.97854486
0.97883647
0.98099485
0.96733229
0.96591348
0.96725119
0.98565015
0.96862952
0.97001176
0.96857809
0.97214674
0.98907668
0.97220339
0.97127763
0.97315254
0.9894995
0.97323497
0.97447135
0.97564621
0.9753257
0.97576348
0.97632458
0.9764438
0.97381124
0.9749901
0.81878921
0.95803448
0.96753299
0.92130143
0.89740245
0.97708457
0.97611697
0.9552059
0.95834532
0.94925013
0.95077656
0.88878802
0.80354055
0.8730081
0.89408819
0.96700697
0.96866914
0.96711362
0.96869868
0.9679074
0.96922977
0.96902004
0.96722829
0.96091877
0.95827461
0.95987615
0.96700874
0.96867
0.96700702
0.96867348
0.96674217
0.96849695
0.96858716
0.96698275
0.95274798
0.9535711
0.96658854
0.96794972
0.96769986
0.96602672
0.95841059
0.95311512
0.9452858
0.95369138
0.86204379
0.86143488
0.9768386
0.97831212
0.97997756
0.97690315
0.97861194
0.97969885
0.78606645
0.81596776
0.79145413
0.79756291
0.82781012
0.81407878
0.84494982
0.85171355
0.97246109
0.97080496
0.97495199
0.97358101
0.97063324
0.97209461
0.97492206
0.97439356
0.97579171
0.97706874
0.97773521
0.97163101
0.97333421
0.96921169
0.97031586
0.97792872
0.97872082
0.9761114
0.97714085
0.97876401
0.97803102
0.97938563
0.97943395
0.81955178
0.88032721
0.95216746
0.95831307
0.90991504
0.88946866
0.90275268
0.89907037
0.91621899
0.97498756
0.97354895
0.97032483
0.97174513
0.9703757
0.97204284
0.95476029
0.95660999
0.96316078
0.97009489
0.97134767
0.97019732
0.9716955
0.97028543
0.97171773
0.97029065
0.97172356
0.9694938
0.97115038
0.95822021
0.94920405
0.96006726
0.95399394
0.94891103
0.94428632
0.9795337
0.97613215
0.97716098
0.97805954
0.97887794
1.0159121
1.0190816
1.0205341
1.0166705
1.0061837
1.0062671
1.0094803
1.0487883
1.0053907
1.0038868
1.0058229
1.0381482
1.0046474
1.0013926
1.0039736
1.0062766
1.0031347
1.0076565
1.0039059
0.99982679
1.0025409
1.011744
1.0365148
1.0522852
0.99810595
0.98927945
1.0041567
1.0056305
1.0203088
1.009913
1.0038515
1.0035743
1.0038796
1.0037867
1.0043897
1.0034201
1.0265168
1.0347365
1.04
1.0367401
1.0229144
1.012537
0.99814141
1.0088056
0.98422194
0.99484421
0.98635469
1.0079476
1.0064206
1.0069648
0.9617956
0.99866443
0.99996069
1.0231059
1.0245071
1.0307163
1.0202932
1.0125773
1.0117976
0.96492395
0.9968161
0.99450884
1.0195504
1.0255529
1.0117595
0.84883917
1.0036977
1.0041573
1.0039927
1.0040276
1.0035597
1.0006699
1.0051237
1.0033656
0.89202343
1.0033173
1.0036983
1.0056843
1.0047825
1.0038613
0.96547062
1.0345077
1.0397144
1.0278703
1.0358781
1.0321747
0.96609877
1.0579079
1.0570958
0.96546231
1.029132
1.0237533
1.0085416
1.0001774
1.0087583
0.96531789
0.99187256
0.99708048
0.99904388
0.99785728
0.99101863
0.96466737
0.98326096
0.96578744
0.96494252
0.98680767
0.9819768
1.0059322
1.0046269
0.9991463
1.001012
1.0004116
0.92985056
1.0016936
1.0007874
1.0018325
1.0020641
1.0012059
1.0280524
1.058938
1.025037
1.0221117
1.0603599
1.0262079
0.99731901
0.99575626
0.99507708
0.95627857
0.98711307
0.99139019
0.99295021
0.98796564
0.99204879
1.0163508
0.84229856
1.0050716
1.0046034
1.0038278
1.0038546
1.0039611
0.82458367
0.81097605
1.0042829
1.0038694
1.0041548
0.91469938
1.0024005
1.0032885
1.0034103
1.0042145
1.0038512
0.8930069
0.8956519
1.0030471
1.0038119
1.0035094
1.0299438
1.0299867
1.0342018
0.96550308
1.0487196
1.0446618
1.0323341
1.0413836
1.0381326
0.96586379
1.052531
1.0549875
1.0486111
1.0399161
1.0482173
1.0441903
1.0386715
1.046602
1.0255653
1.0192908
1.0210904
0.96546189
1.012771
1.0181274
1.0161577
1.012801
1.0168068
0.96538626
1.0077721
1.0024008
0.99523575
1.0015728
0.99948748
1.0083101
1.0051441
1.0038562
0.95955471
0.98157813
0.97471457
0.96457963
0.97002736
0.96736871
0.98261596
0.97779383
0.97585959
0.99116226
0.99174542
0.98729845
0.96478643
0.97340551
0.97747817
0.98889577
0.98050841
0.98371162
1.0403609
1.035724
1.0300309
1.0350472
1.0344888
1.0326962
1.0438439
1.0374554
1.0345377
1.0579058
1.0375668
1.0421531
0.96599809
0.9876877
0.96590279
1.0322715
1.0198814
1.024435
1.0340139
1.0351315
1.032697
1.0516196
1.0437049
1.0397279
1.0608693
1.0456737
1.0438088
0.96987452
0.98490764
0.96986033
0.97105154
0.98835831
0.97107508
0.97406788
0.98642092
0.97416829
0.97489674
0.99087549
0.97500826
1.0121025
1.0150828
1.0123522
1.0241162
1.0134784
1.0189072
1.0044267
1.0040449
1.0079237
1.007534
1.0047494
1.005877
1.0051582
1.0122672
1.0087869
0.97371933
1.0079673
1.0070897
1.0044315
1.0058749
0.96807229
0.95864515
1.0178419
1.013538
1.0183893
0.9771045
0.95847214
0.95716036
1.0045796
1.0050452
1.0128543
1.0036188
1.0035127
0.96701669
0.96704798
0.96763575
0.96740398
0.95774402
0.95835854
0.96701386
0.96701534
0.96685727
0.96693542
0.96155525
0.96640305
0.96620461
0.96215579
0.95887769
1.0053867
1.0092165
1.0117078
1.0089939
1.0070243
1.0094467
1.0086003
1.0073066
1.0091855
1.0259581
1.020994
1.0234317
1.0286719
1.0274141
1.0257904
1.017279
1.0187276
1.0167119
1.0147623
1.0116149
1.0142425
0.97858564
0.98001764
0.97864462
0.97996718
1.0264483
1.0165304
1.0223743
1.0152644
1.0139186
1.0186746
1.0039775
1.0042931
1.0041309
1.0035389
1.0037567
1.0038213
0.80286434
0.80448473
1.0017688
1.0016609
1.0027342
1.0024921
1.0041472
1.0035776
1.0045399
1.0051013
1.0049508
1.0042074
1.0045266
1.0049019
0.84136538
0.83724486
0.97231495
0.97364022
0.97218937
1.0307996
1.0276289
1.0302079
1.0337799
1.0287775
1.0309597
0.97541386
0.9762646
1.0029547
1.0018469
1.0042965
1.0057801
1.009129
1.0065804
0.97210178
0.97080225
0.99695971
1.0003492
0.99824145
0.9953603
0.99978129
0.99779134
0.99421653
0.99307106
0.99602061
1.0321074
1.0226216
1.0280619
1.0242663
1.0326994
1.0307603
1.0301391
1.0220069
1.0303103
1.0254098
1.0340391
1.0325048
0.97796646
0.9771225
0.97800015
0.8116241
0.90098226
0.91131867
0.89333067
0.9085162
0.97358705
0.97193587
0.97211062
0.94958978
0.94754038
0.97152184
0.97162963
0.97172498
0.9717304
0.97101003
0.95515925
0.95516371
0.94970396
0.97720138
0.9780723
)
;
    }
    air_to_vegetation
    {
        type            calculated;
        value           nonuniform List<scalar> 
110
(
1.2213023
0.83546745
1.2213023
1.2213023
1.2213023
0.83546745
1.2213023
0.83546745
0.83546745
0.83546745
0.83546745
0.83546745
0.83546745
0.83546745
0.83546745
0.83546745
0.83546745
0.83546745
0.83546745
0.83546745
0.83546745
1.2213023
1.2213023
0.83546745
0.83546745
1.2213023
0.83546745
0.83546745
1.2213023
1.2213023
0.83546745
0.83546745
1.2213023
0.83546745
1.2213023
1.2213023
1.2213023
1.2213023
1.2213023
1.2213023
1.2213023
0.83546745
1.2213023
1.2213023
0.83546745
1.2213023
1.2213023
1.2213023
1.2213023
1.2213023
1.2213023
1.2213023
1.2213023
1.2213023
1.2213023
1.2213023
0.83546745
0.83546745
0.83546745
0.83546745
1.2213023
1.2213023
1.2213023
1.2213023
0.83546745
1.2213023
0.83546745
0.83546745
0.83546745
1.2213023
1.2213023
1.2213023
1.2213023
0.83546745
0.83546745
0.83546745
0.83546745
0.83546745
0.83546745
0.83546745
0.83546745
0.83546745
0.83546745
0.83546745
0.83546745
0.83546745
0.83546745
1.2213023
1.2213023
0.83546745
0.83546745
1.2213023
1.2213023
1.2213023
1.2213023
1.2213023
1.2213023
1.2213023
1.2213023
1.2213023
0.83546745
0.83546745
1.2213023
1.2213023
0.83546745
0.83546745
1.2213023
1.2213023
1.2213023
1.2213023
)
;
    }
    procBoundary10to8
    {
        type            processor;
        value           uniform 0;
    }
    procBoundary10to11
    {
        type            processor;
        value           uniform 0;
    }
    procBoundary10to12
    {
        type            processor;
        value           uniform 0;
    }
    procBoundary10to13
    {
        type            processor;
        value           uniform 0;
    }
}


// ************************************************************************* //
