/*--------------------------------*- C++ -*----------------------------------*\
  =========                 |
  \\      /  F ield         | OpenFOAM: The Open Source CFD Toolbox
   \\    /   O peration     | Website:  https://openfoam.org
    \\  /    A nd           | Version:  8
     \\/     M anipulation  |
\*---------------------------------------------------------------------------*/
/*   Windows 32 and 64 bit porting by blueCAPE: http://www.bluecape.com.pt   *\
|  Based on Windows porting (2.0.x v4) by Symscape: http://www.symscape.com   |
\*---------------------------------------------------------------------------*/
FoamFile
{
    version     2.0;
    format      ascii;
    class       volScalarField;
    location    "0/vegetation";
    object      facesAgglomeration;
}
// * * * * * * * * * * * * * * * * * * * * * * * * * * * * * * * * * * * * * //

dimensions      [0 0 0 0 0 0 0];

internalField   uniform 0;

boundaryField
{
    left
    {
        type            calculated;
        value           nonuniform List<scalar> 0();
    }
    right
    {
        type            calculated;
        value           nonuniform List<scalar> 0();
    }
    back
    {
        type            calculated;
        value           nonuniform List<scalar> 0();
    }
    front
    {
        type            calculated;
        value           uniform 706;
    }
    bottom
    {
        type            calculated;
        value           nonuniform List<scalar> 
362
(
707
708
709
709
707
708
710
711
712
713
714
715
710
716
717
711
718
719
720
721
722
716
723
716
722
724
725
723
726
727
728
729
730
730
731
732
729
733
734
731
735
736
737
738
739
740
729
732
725
713
713
713
721
741
742
743
744
744
745
744
746
747
748
748
749
739
738
750
751
723
752
753
754
755
755
708
756
756
710
714
714
714
721
757
757
717
717
729
758
759
760
761
739
762
722
722
762
726
726
726
763
753
752
764
753
763
754
753
765
742
755
766
738
756
756
767
767
767
760
768
743
767
769
739
769
769
738
754
770
770
771
771
709
719
736
715
742
741
715
719
734
733
725
731
772
773
774
774
734
775
775
758
765
712
776
777
777
732
748
757
721
743
711
743
745
745
745
744
768
768
778
778
752
760
760
760
763
772
763
752
772
772
773
772
752
779
779
764
724
779
763
760
746
746
707
736
736
737
755
742
770
708
708
720
710
780
780
716
781
781
718
718
718
720
748
720
747
748
748
749
769
769
728
728
782
762
727
727
724
724
724
723
723
723
781
781
727
728
728
728
770
770
754
732
779
724
733
771
771
734
774
733
773
774
731
735
735
735
737
755
737
740
740
740
777
777
725
757
757
741
744
744
744
746
746
743
747
747
747
749
769
749
750
750
750
751
751
751
724
752
709
709
709
709
778
721
780
780
776
776
776
758
758
758
759
759
759
739
761
761
762
761
761
764
732
732
778
729
729
764
765
765
765
765
764
742
775
775
766
766
766
768
768
768
774
774
773
782
782
782
712
712
712
743
711
711
725
730
755
717
755
755
730
741
757
741
719
707
719
715
736
736
)
;
    }
    top
    {
        type            calculated;
        value           nonuniform List<scalar> 
43
(
783
783
783
783
783
783
784
784
784
784
784
783
783
783
784
783
783
783
784
784
783
783
783
784
784
784
783
783
783
784
784
784
784
784
784
784
784
784
783
783
783
784
783
)
;
    }
    tower
    {
        type            calculated;
        value           nonuniform List<scalar> 
134
(
785
786
787
788
789
790
791
792
793
794
795
796
797
798
799
800
801
802
803
804
805
806
807
808
809
810
811
812
813
814
815
816
817
818
819
820
821
822
823
824
825
826
827
828
829
830
831
832
833
834
835
836
837
838
839
840
841
842
843
844
845
846
847
848
849
850
851
852
853
854
855
856
857
858
859
860
861
862
863
864
865
866
867
868
869
870
871
872
873
874
875
876
877
878
879
880
881
882
883
884
885
886
887
888
889
890
891
892
893
894
895
896
897
898
899
900
901
902
903
904
905
906
907
908
909
910
911
912
913
914
915
916
917
918
)
;
    }
    air_to_vegetation
    {
        type            calculated;
        value           nonuniform List<scalar> 
632
(
919
920
921
922
923
920
923
924
921
924
919
925
926
926
921
921
921
921
920
921
927
928
928
928
928
921
924
928
928
928
923
919
919
929
929
919
919
925
925
926
926
926
926
921
921
921
921
921
921
929
929
930
922
930
929
929
930
930
930
930
920
931
926
931
924
924
927
927
931
927
926
922
928
928
928
928
928
923
928
923
923
923
923
926
926
926
926
923
923
923
923
928
928
928
928
928
928
932
928
928
928
928
928
924
921
921
921
928
928
928
928
923
921
933
933
919
929
930
929
929
927
930
922
922
929
930
929
929
930
930
930
930
922
922
922
924
920
926
920
920
921
927
927
927
933
925
933
933
929
925
929
925
919
919
919
919
919
925
919
929
929
929
925
929
919
919
919
919
925
925
930
922
922
922
929
922
929
930
922
922
922
922
930
922
930
929
929
929
929
929
929
930
930
930
930
930
930
930
930
930
930
930
930
930
930
932
920
931
931
931
920
926
926
926
920
926
926
931
931
926
924
924
927
927
927
927
927
927
927
926
924
927
922
922
922
924
924
927
923
919
923
920
920
932
921
930
930
926
923
928
923
920
920
920
920
920
928
923
923
923
928
924
924
923
924
924
930
925
922
932
926
926
920
920
920
923
923
919
919
919
919
925
925
925
925
925
925
933
925
925
920
920
920
920
920
920
920
920
920
920
920
921
921
921
921
921
921
921
932
921
930
930
930
930
930
930
920
932
932
932
932
932
932
932
920
931
926
931
931
931
933
933
933
933
923
923
923
923
923
926
923
928
932
928
928
932
923
923
923
923
923
923
928
923
921
924
921
921
921
924
921
921
921
924
932
923
924
924
924
923
923
919
919
933
933
933
933
933
933
923
923
923
922
919
930
919
930
930
932
932
920
932
932
932
932
932
932
926
926
926
926
926
926
933
933
933
933
919
919
919
925
925
925
925
925
925
922
922
922
932
920
926
920
920
921
927
927
927
927
921
921
919
919
919
919
919
925
933
929
925
925
919
919
919
919
925
925
919
929
925
930
930
929
919
919
919
919
919
919
919
919
919
919
919
925
933
933
933
925
933
925
925
933
933
933
933
925
925
925
932
923
923
924
924
924
930
922
922
922
922
930
930
922
922
922
930
930
929
930
929
930
930
929
930
929
929
929
929
930
930
930
930
930
930
930
930
919
930
919
930
930
930
930
930
930
920
920
932
932
932
932
920
920
932
920
932
932
932
932
932
932
932
932
932
932
932
931
931
931
931
931
931
931
920
931
931
931
926
926
926
926
926
926
931
931
931
926
926
924
924
924
924
927
927
927
931
927
931
927
931
927
924
924
927
924
927
926
927
927
931
927
933
933
933
933
933
933
922
922
922
922
922
933
933
933
933
933
922
922
922
924
924
931
932
931
931
931
931
931
931
932
931
932
932
924
924
924
924
924
920
932
927
)
;
    }
    procBoundary11to10
    {
        type            processor;
        value           nonuniform List<scalar> 
283
(
934
935
936
937
938
939
940
941
942
943
944
945
946
947
948
949
950
951
952
953
954
955
956
957
958
959
960
961
962
963
964
965
966
967
968
969
970
971
972
973
974
975
976
977
978
979
980
981
982
983
984
985
986
987
988
989
990
991
992
993
994
995
996
997
998
999
1000
1001
1002
1003
1004
1005
1006
1007
1008
1009
1010
1011
1012
1013
1014
1015
1016
1017
1018
1019
1020
1021
1022
1023
1024
1025
1026
1027
1028
1029
1030
1031
1032
1033
1034
1035
1036
1037
1038
1039
1040
1041
1042
1043
1044
1045
1046
1047
1048
1049
1050
1051
1052
1053
1054
1055
1056
1057
1058
1059
1060
1061
1062
1063
1064
1065
1066
1067
1068
1069
1070
1071
1072
1073
1074
1075
1076
1077
1078
1079
1080
1081
1082
1083
1084
1085
1086
1087
1088
1089
1090
1091
1092
1093
1094
1095
1096
1097
1098
1099
1100
1101
1102
1103
1104
1105
1106
1107
1108
1109
1110
1111
1112
1113
1114
1115
1116
1117
1118
1119
1120
1121
1122
1123
1124
1125
1126
1127
1128
1129
1130
1131
1132
1133
1134
1135
1136
1137
1138
1139
1140
1141
1142
1143
1144
1145
1146
1147
1148
1149
1150
1151
1152
1153
1154
1155
1156
1157
1158
1159
1160
1161
1162
1163
1164
1165
1166
1167
1168
1169
1170
1171
1172
1173
1174
1175
1176
1177
1178
1179
1180
1181
1182
1183
1184
1185
1186
1187
1188
1189
1190
1191
1192
1193
1194
1195
1196
1197
1198
1199
1200
1201
1202
1203
1204
1205
1206
1207
1208
1209
1210
1211
1212
1213
1214
1215
1216
)
;
    }
    procBoundary11to13
    {
        type            processor;
        value           nonuniform List<scalar> 
93
(
1217
1218
1219
1220
1221
1222
1223
1224
1225
1226
1227
1228
1229
1230
1231
1232
1233
1234
1235
1236
1237
1238
1239
1240
1241
1242
1243
1244
1245
1246
1247
1248
1249
1250
1251
1252
1253
1254
1255
1256
1257
1258
1259
1260
1261
1262
1263
1264
1265
1266
1267
1268
1269
1270
1271
1272
1273
1274
1275
1276
1277
1278
1279
1280
1281
1282
1283
1284
1285
1286
1287
1288
1289
1290
1291
1292
1293
1294
1295
1296
1297
1298
1299
1300
1301
1302
1303
1304
1305
1306
1307
1308
1309
)
;
    }
    procBoundary11to15
    {
        type            processor;
        value           nonuniform List<scalar> 
352
(
1310
1311
1312
1313
1314
1315
1316
1317
1318
1319
1320
1321
1322
1323
1324
1325
1326
1327
1328
1329
1330
1331
1332
1333
1334
1335
1336
1337
1338
1339
1340
1341
1342
1343
1344
1345
1346
1347
1348
1349
1350
1351
1352
1353
1354
1355
1356
1357
1358
1359
1360
1361
1362
1363
1364
1365
1366
1367
1368
1369
1370
1371
1372
1373
1374
1375
1376
1377
1378
1379
1380
1381
1382
1383
1384
1385
1386
1387
1388
1389
1390
1391
1392
1393
1394
1395
1396
1397
1398
1399
1400
1401
1402
1403
1404
1405
1406
1407
1408
1409
1410
1411
1412
1413
1414
1415
1416
1417
1418
1419
1420
1421
1422
1423
1424
1425
1426
1427
1428
1429
1430
1431
1432
1433
1434
1435
1436
1437
1438
1439
1440
1441
1442
1443
1444
1445
1446
1447
1448
1449
1450
1451
1452
1453
1454
1455
1456
1457
1458
1459
1460
1461
1462
1463
1464
1465
1466
1467
1468
1469
1470
1471
1472
1473
1474
1475
1476
1477
1478
1479
1480
1481
1482
1483
1484
1485
1486
1487
1488
1489
1490
1491
1492
1493
1494
1495
1496
1497
1498
1499
1500
1501
1502
1503
1504
1505
1506
1507
1508
1509
1510
1511
1512
1513
1514
1515
1516
1517
1518
1519
1520
1521
1522
1523
1524
1525
1526
1527
1528
1529
1530
1531
1532
1533
1534
1535
1536
1537
1538
1539
1540
1541
1542
1543
1544
1545
1546
1547
1548
1549
1550
1551
1552
1553
1554
1555
1556
1557
1558
1559
1560
1561
1562
1563
1564
1565
1566
1567
1568
1569
1570
1571
1572
1573
1574
1575
1576
1577
1578
1579
1580
1581
1582
1583
1584
1585
1586
1587
1588
1589
1590
1591
1592
1593
1594
1595
1596
1597
1598
1599
1600
1601
1602
1603
1604
1605
1606
1607
1608
1609
1610
1611
1612
1613
1614
1615
1616
1617
1618
1619
1620
1621
1622
1623
1624
1625
1626
1627
1628
1629
1630
1631
1632
1633
1634
1635
1636
1637
1638
1639
1640
1641
1642
1643
1644
1645
1646
1647
1648
1649
1650
1651
1652
1653
1654
1655
1656
1657
1658
1659
1660
1661
)
;
    }
    procBoundary11to17
    {
        type            processor;
        value           nonuniform List<scalar> 
109
(
1662
1663
1664
1665
1666
1667
1668
1669
1670
1671
1672
1673
1674
1675
1676
1677
1678
1679
1680
1681
1682
1683
1684
1685
1686
1687
1688
1689
1690
1691
1692
1693
1694
1695
1696
1697
1698
1699
1700
1701
1702
1703
1704
1705
1706
1707
1708
1709
1710
1711
1712
1713
1714
1715
1716
1717
1718
1719
1720
1721
1722
1723
1724
1725
1726
1727
1728
1729
1730
1731
1732
1733
1734
1735
1736
1737
1738
1739
1740
1741
1742
1743
1744
1745
1746
1747
1748
1749
1750
1751
1752
1753
1754
1755
1756
1757
1758
1759
1760
1761
1762
1763
1764
1765
1766
1767
1768
1769
1770
)
;
    }
}


// ************************************************************************* //
