/*--------------------------------*- C++ -*----------------------------------*\
  =========                 |
  \\      /  F ield         | OpenFOAM: The Open Source CFD Toolbox
   \\    /   O peration     | Website:  https://openfoam.org
    \\  /    A nd           | Version:  8
     \\/     M anipulation  |
\*---------------------------------------------------------------------------*/
/*   Windows 32 and 64 bit porting by blueCAPE: http://www.bluecape.com.pt   *\
|  Based on Windows porting (2.0.x v4) by Symscape: http://www.symscape.com   |
\*---------------------------------------------------------------------------*/
FoamFile
{
    version     2.0;
    format      ascii;
    class       volScalarField;
    location    "0/vegetation";
    object      viewFactorField;
}
// * * * * * * * * * * * * * * * * * * * * * * * * * * * * * * * * * * * * * //

dimensions      [0 0 0 0 0 0 0];

internalField   uniform 0;

boundaryField
{
    left
    {
        type            calculated;
        value           nonuniform List<scalar> 0();
    }
    right
    {
        type            calculated;
        value           nonuniform List<scalar> 0();
    }
    back
    {
        type            calculated;
        value           nonuniform List<scalar> 0();
    }
    front
    {
        type            calculated;
        value           uniform 1.0378183;
    }
    bottom
    {
        type            calculated;
        value           nonuniform List<scalar> 
362
(
1.0455476
0.92598954
0.77977229
0.77977229
1.0455476
0.92598954
1.0378348
1.0602262
0.89960329
1.1982156
1.0896446
1.0023552
1.0378348
1.2185344
0.86997444
1.0602262
0.92031339
0.99217864
0.99978328
1.0808687
1.0530075
1.2185344
1.2801357
1.2185344
1.0530075
0.76267645
0.80672236
1.2801357
1.0584685
1.140577
1.0541205
0.82298197
0.83985672
0.83985672
0.76233371
0.78992217
0.82298197
0.92455936
0.92375426
0.76233371
1.0043544
1.0493049
0.97819668
0.73652138
0.82836653
1.0553204
0.82298197
0.78992217
0.80672236
1.1982156
1.1982156
1.1982156
1.0808687
1.0014324
0.97870144
0.90681394
0.95036501
0.95036501
0.94396023
0.95036501
0.93426781
0.99831991
1.0984515
1.0984515
1.0689552
0.82836653
0.73652138
1.0869945
1.0920825
1.2801357
0.71587376
0.68823478
0.76687527
0.97131833
0.97131833
0.92598954
0.82503539
0.82503539
1.0378348
1.0896446
1.0896446
1.0896446
1.0808687
0.99888017
0.99888017
0.86997444
0.86997444
0.82298197
0.93897854
0.8450827
0.92949246
1.0104904
0.82836653
1.0088109
1.0530075
1.0530075
1.0088109
1.0584685
1.0584685
1.0584685
0.58410645
0.68823478
0.71587376
0.70812781
0.68823478
0.58410645
0.76687527
0.68823478
0.78057019
0.97870144
0.97131833
0.8962605
0.73652138
0.82503539
0.82503539
0.73671864
0.73671864
0.73671864
0.92949246
0.84922397
0.90681394
0.73671864
1.0194833
0.82836653
1.0194833
1.0194833
0.73652138
0.76687527
0.86301621
0.86301621
0.89357875
0.89357875
0.77977229
0.99217864
1.0493049
1.0023552
0.97870144
1.0014324
1.0023552
0.99217864
0.92375426
0.92455936
0.80672236
0.76233371
0.73700923
0.75707661
0.76718019
0.76718019
0.92375426
0.94749396
0.94749396
0.93897854
0.78057019
0.89960329
0.8175459
0.7900673
0.7900673
0.78992217
1.0984515
0.99888017
1.0808687
0.90681394
1.0602262
0.90681394
0.94396023
0.94396023
0.94396023
0.95036501
0.84922397
0.84922397
0.74601541
0.74601541
0.71587376
0.92949246
0.92949246
0.92949246
0.58410645
0.73700923
0.58410645
0.71587376
0.73700923
0.73700923
0.75707661
0.73700923
0.71587376
0.69959923
0.69959923
0.70812781
0.76267645
0.69959923
0.58410645
0.92949246
0.93426781
0.93426781
1.0455476
1.0493049
1.0493049
0.97819668
0.97131833
0.97870144
0.86301621
0.92598954
0.92598954
0.99978328
1.0378348
1.0548496
1.0548496
1.2185344
0.95272517
0.95272517
0.92031339
0.92031339
0.92031339
0.99978328
1.0984515
0.99978328
0.99831991
1.0984515
1.0984515
1.0689552
1.0194833
1.0194833
1.0541205
1.0541205
1.0323184
1.0088109
1.140577
1.140577
0.76267645
0.76267645
0.76267645
1.2801357
1.2801357
1.2801357
0.95272517
0.95272517
1.140577
1.0541205
1.0541205
1.0541205
0.86301621
0.86301621
0.76687527
0.78992217
0.69959923
0.76267645
0.92455936
0.89357875
0.89357875
0.92375426
0.76718019
0.92455936
0.75707661
0.76718019
0.76233371
1.0043544
1.0043544
1.0043544
0.97819668
0.97131833
0.97819668
1.0553204
1.0553204
1.0553204
0.7900673
0.7900673
0.80672236
0.99888017
0.99888017
1.0014324
0.95036501
0.95036501
0.95036501
0.93426781
0.93426781
0.90681394
0.99831991
0.99831991
0.99831991
1.0689552
1.0194833
1.0689552
1.0869945
1.0869945
1.0869945
1.0920825
1.0920825
1.0920825
0.76267645
0.71587376
0.77977229
0.77977229
0.77977229
0.77977229
0.74601541
1.0808687
1.0548496
1.0548496
0.8175459
0.8175459
0.8175459
0.93897854
0.93897854
0.93897854
0.8450827
0.8450827
0.8450827
0.82836653
1.0104904
1.0104904
1.0088109
1.0104904
1.0104904
0.70812781
0.78992217
0.78992217
0.74601541
0.82298197
0.82298197
0.70812781
0.78057019
0.78057019
0.78057019
0.78057019
0.70812781
0.97870144
0.94749396
0.94749396
0.8962605
0.8962605
0.8962605
0.84922397
0.84922397
0.84922397
0.76718019
0.76718019
0.75707661
1.0323184
1.0323184
1.0323184
0.89960329
0.89960329
0.89960329
0.90681394
1.0602262
1.0602262
0.80672236
0.83985672
0.97131833
0.86997444
0.97131833
0.97131833
0.83985672
1.0014324
0.99888017
1.0014324
0.99217864
1.0455476
0.99217864
1.0023552
1.0493049
1.0493049
)
;
    }
    top
    {
        type            calculated;
        value           nonuniform List<scalar> 
43
(
1.0193501
1.0193501
1.0193501
1.0193501
1.0193501
1.0193501
0.99549471
0.99549471
0.99549471
0.99549471
0.99549471
1.0193501
1.0193501
1.0193501
0.99549471
1.0193501
1.0193501
1.0193501
0.99549471
0.99549471
1.0193501
1.0193501
1.0193501
0.99549471
0.99549471
0.99549471
1.0193501
1.0193501
1.0193501
0.99549471
0.99549471
0.99549471
0.99549471
0.99549471
0.99549471
0.99549471
0.99549471
0.99549471
1.0193501
1.0193501
1.0193501
0.99549471
1.0193501
)
;
    }
    tower
    {
        type            calculated;
        value           nonuniform List<scalar> 
134
(
1.0013287
0.99457395
1.0046232
0.99033301
0.87745898
0.99616671
1.0272278
1.0578819
1.0293723
1.0355024
1.0290095
1.0342123
0.85210524
0.87863111
0.86074357
0.98722422
0.9898015
0.84585147
0.97474741
0.93528831
0.98788608
0.92476096
0.97789217
0.98438167
0.98062548
0.93357246
0.84132558
0.87190574
0.92322402
0.94286892
0.91361004
0.90153806
0.94193268
0.90523728
0.99066579
0.93730275
0.97427472
0.93878411
0.97926469
0.96074815
0.97690601
0.98207812
0.98948731
0.9654942
0.94437673
0.95118498
0.85976553
0.86069317
0.93506074
0.88794152
0.88780772
0.92190854
0.92409463
0.88180615
0.89673671
0.89179846
0.9783959
0.95162643
0.85675853
0.85407331
0.94399285
0.95347653
0.94340478
0.95450588
0.93155508
0.85852771
0.89639625
0.88155823
0.95596087
0.9318244
0.95831152
0.91930627
0.91979233
1.0454219
0.94238109
1.0483117
0.95744481
0.93469391
0.93520789
0.94641883
0.97884105
0.95320333
0.92789238
0.93016339
0.95527755
0.88605699
0.90871694
0.87541243
0.89917354
0.95128433
0.9654216
0.96952803
0.97703736
1.0296326
1.0320627
1.0306675
1.0357899
1.0096228
1.0018047
1.0004214
0.97405306
0.94777897
0.99890869
1.0309331
1.0504237
1.0401354
0.94937363
0.87289775
0.93527773
0.87873629
0.87531546
1.0018825
0.99342834
0.98155166
0.93540632
0.932087
0.93857136
0.99048371
0.98692037
0.97897279
0.88175262
0.86601054
0.94467988
0.97800385
0.98231827
0.97833064
0.99061105
0.98566061
1.0228557
1.037109
0.93286601
0.9291041
0.94765325
0.97488035
)
;
    }
    air_to_vegetation
    {
        type            calculated;
        value           nonuniform List<scalar> 
632
(
0.90450098
1.2791053
1.3641873
0.88759699
1.1612044
1.2791053
1.1612044
1.0536236
1.3641873
1.0536236
0.90450098
0.79640844
1.1039812
1.1039812
1.3641873
1.3641873
1.3641873
1.3641873
1.2791053
1.3641873
1.0279432
1.1984121
1.1984121
1.1984121
1.1984121
1.3641873
1.0536236
1.1984121
1.1984121
1.1984121
1.1612044
0.90450098
0.90450098
1.0070195
1.0070195
0.90450098
0.90450098
0.79640844
0.79640844
1.1039812
1.1039812
1.1039812
1.1039812
1.3641873
1.3641873
1.3641873
1.3641873
1.3641873
1.3641873
1.0070195
1.0070195
0.65808167
0.88759699
0.65808167
1.0070195
1.0070195
0.65808167
0.65808167
0.65808167
0.65808167
1.2791053
1.0221345
1.1039812
1.0221345
1.0536236
1.0536236
1.0279432
1.0279432
1.0221345
1.0279432
1.1039812
0.88759699
1.1984121
1.1984121
1.1984121
1.1984121
1.1984121
1.1612044
1.1984121
1.1612044
1.1612044
1.1612044
1.1612044
1.1039812
1.1039812
1.1039812
1.1039812
1.1612044
1.1612044
1.1612044
1.1612044
1.1984121
1.1984121
1.1984121
1.1984121
1.1984121
1.1984121
1.078929
1.1984121
1.1984121
1.1984121
1.1984121
1.1984121
1.0536236
1.3641873
1.3641873
1.3641873
1.1984121
1.1984121
1.1984121
1.1984121
1.1612044
1.3641873
1.1130868
1.1130868
0.90450098
1.0070195
0.65808167
1.0070195
1.0070195
1.0279432
0.65808167
0.88759699
0.88759699
1.0070195
0.65808167
1.0070195
1.0070195
0.65808167
0.65808167
0.65808167
0.65808167
0.88759699
0.88759699
0.88759699
1.0536236
1.2791053
1.1039812
1.2791053
1.2791053
1.3641873
1.0279432
1.0279432
1.0279432
1.1130868
0.79640844
1.1130868
1.1130868
1.0070195
0.79640844
1.0070195
0.79640844
0.90450098
0.90450098
0.90450098
0.90450098
0.90450098
0.79640844
0.90450098
1.0070195
1.0070195
1.0070195
0.79640844
1.0070195
0.90450098
0.90450098
0.90450098
0.90450098
0.79640844
0.79640844
0.65808167
0.88759699
0.88759699
0.88759699
1.0070195
0.88759699
1.0070195
0.65808167
0.88759699
0.88759699
0.88759699
0.88759699
0.65808167
0.88759699
0.65808167
1.0070195
1.0070195
1.0070195
1.0070195
1.0070195
1.0070195
0.65808167
0.65808167
0.65808167
0.65808167
0.65808167
0.65808167
0.65808167
0.65808167
0.65808167
0.65808167
0.65808167
0.65808167
0.65808167
0.65808167
1.078929
1.2791053
1.0221345
1.0221345
1.0221345
1.2791053
1.1039812
1.1039812
1.1039812
1.2791053
1.1039812
1.1039812
1.0221345
1.0221345
1.1039812
1.0536236
1.0536236
1.0279432
1.0279432
1.0279432
1.0279432
1.0279432
1.0279432
1.0279432
1.1039812
1.0536236
1.0279432
0.88759699
0.88759699
0.88759699
1.0536236
1.0536236
1.0279432
1.1612044
0.90450098
1.1612044
1.2791053
1.2791053
1.078929
1.3641873
0.65808167
0.65808167
1.1039812
1.1612044
1.1984121
1.1612044
1.2791053
1.2791053
1.2791053
1.2791053
1.2791053
1.1984121
1.1612044
1.1612044
1.1612044
1.1984121
1.0536236
1.0536236
1.1612044
1.0536236
1.0536236
0.65808167
0.79640844
0.88759699
1.078929
1.1039812
1.1039812
1.2791053
1.2791053
1.2791053
1.1612044
1.1612044
0.90450098
0.90450098
0.90450098
0.90450098
0.79640844
0.79640844
0.79640844
0.79640844
0.79640844
0.79640844
1.1130868
0.79640844
0.79640844
1.2791053
1.2791053
1.2791053
1.2791053
1.2791053
1.2791053
1.2791053
1.2791053
1.2791053
1.2791053
1.2791053
1.3641873
1.3641873
1.3641873
1.3641873
1.3641873
1.3641873
1.3641873
1.078929
1.3641873
0.65808167
0.65808167
0.65808167
0.65808167
0.65808167
0.65808167
1.2791053
1.078929
1.078929
1.078929
1.078929
1.078929
1.078929
1.078929
1.2791053
1.0221345
1.1039812
1.0221345
1.0221345
1.0221345
1.1130868
1.1130868
1.1130868
1.1130868
1.1612044
1.1612044
1.1612044
1.1612044
1.1612044
1.1039812
1.1612044
1.1984121
1.078929
1.1984121
1.1984121
1.078929
1.1612044
1.1612044
1.1612044
1.1612044
1.1612044
1.1612044
1.1984121
1.1612044
1.3641873
1.0536236
1.3641873
1.3641873
1.3641873
1.0536236
1.3641873
1.3641873
1.3641873
1.0536236
1.078929
1.1612044
1.0536236
1.0536236
1.0536236
1.1612044
1.1612044
0.90450098
0.90450098
1.1130868
1.1130868
1.1130868
1.1130868
1.1130868
1.1130868
1.1612044
1.1612044
1.1612044
0.88759699
0.90450098
0.65808167
0.90450098
0.65808167
0.65808167
1.078929
1.078929
1.2791053
1.078929
1.078929
1.078929
1.078929
1.078929
1.078929
1.1039812
1.1039812
1.1039812
1.1039812
1.1039812
1.1039812
1.1130868
1.1130868
1.1130868
1.1130868
0.90450098
0.90450098
0.90450098
0.79640844
0.79640844
0.79640844
0.79640844
0.79640844
0.79640844
0.88759699
0.88759699
0.88759699
1.078929
1.2791053
1.1039812
1.2791053
1.2791053
1.3641873
1.0279432
1.0279432
1.0279432
1.0279432
1.3641873
1.3641873
0.90450098
0.90450098
0.90450098
0.90450098
0.90450098
0.79640844
1.1130868
1.0070195
0.79640844
0.79640844
0.90450098
0.90450098
0.90450098
0.90450098
0.79640844
0.79640844
0.90450098
1.0070195
0.79640844
0.65808167
0.65808167
1.0070195
0.90450098
0.90450098
0.90450098
0.90450098
0.90450098
0.90450098
0.90450098
0.90450098
0.90450098
0.90450098
0.90450098
0.79640844
1.1130868
1.1130868
1.1130868
0.79640844
1.1130868
0.79640844
0.79640844
1.1130868
1.1130868
1.1130868
1.1130868
0.79640844
0.79640844
0.79640844
1.078929
1.1612044
1.1612044
1.0536236
1.0536236
1.0536236
0.65808167
0.88759699
0.88759699
0.88759699
0.88759699
0.65808167
0.65808167
0.88759699
0.88759699
0.88759699
0.65808167
0.65808167
1.0070195
0.65808167
1.0070195
0.65808167
0.65808167
1.0070195
0.65808167
1.0070195
1.0070195
1.0070195
1.0070195
0.65808167
0.65808167
0.65808167
0.65808167
0.65808167
0.65808167
0.65808167
0.65808167
0.90450098
0.65808167
0.90450098
0.65808167
0.65808167
0.65808167
0.65808167
0.65808167
0.65808167
1.2791053
1.2791053
1.078929
1.078929
1.078929
1.078929
1.2791053
1.2791053
1.078929
1.2791053
1.078929
1.078929
1.078929
1.078929
1.078929
1.078929
1.078929
1.078929
1.078929
1.078929
1.078929
1.0221345
1.0221345
1.0221345
1.0221345
1.0221345
1.0221345
1.0221345
1.2791053
1.0221345
1.0221345
1.0221345
1.1039812
1.1039812
1.1039812
1.1039812
1.1039812
1.1039812
1.0221345
1.0221345
1.0221345
1.1039812
1.1039812
1.0536236
1.0536236
1.0536236
1.0536236
1.0279432
1.0279432
1.0279432
1.0221345
1.0279432
1.0221345
1.0279432
1.0221345
1.0279432
1.0536236
1.0536236
1.0279432
1.0536236
1.0279432
1.1039812
1.0279432
1.0279432
1.0221345
1.0279432
1.1130868
1.1130868
1.1130868
1.1130868
1.1130868
1.1130868
0.88759699
0.88759699
0.88759699
0.88759699
0.88759699
1.1130868
1.1130868
1.1130868
1.1130868
1.1130868
0.88759699
0.88759699
0.88759699
1.0536236
1.0536236
1.0221345
1.078929
1.0221345
1.0221345
1.0221345
1.0221345
1.0221345
1.0221345
1.078929
1.0221345
1.078929
1.078929
1.0536236
1.0536236
1.0536236
1.0536236
1.0536236
1.2791053
1.078929
1.0279432
)
;
    }
    procBoundary11to10
    {
        type            processor;
        value           uniform 0;
    }
    procBoundary11to13
    {
        type            processor;
        value           uniform 0;
    }
    procBoundary11to15
    {
        type            processor;
        value           uniform 0;
    }
    procBoundary11to17
    {
        type            processor;
        value           uniform 0;
    }
}


// ************************************************************************* //
