/*--------------------------------*- C++ -*----------------------------------*\
  =========                 |
  \\      /  F ield         | OpenFOAM: The Open Source CFD Toolbox
   \\    /   O peration     | Website:  https://openfoam.org
    \\  /    A nd           | Version:  8
     \\/     M anipulation  |
\*---------------------------------------------------------------------------*/
/*   Windows 32 and 64 bit porting by blueCAPE: http://www.bluecape.com.pt   *\
|  Based on Windows porting (2.0.x v4) by Symscape: http://www.symscape.com   |
\*---------------------------------------------------------------------------*/
FoamFile
{
    version     2.0;
    format      ascii;
    class       volScalarField;
    location    "0/vegetation";
    object      viewFactorField;
}
// * * * * * * * * * * * * * * * * * * * * * * * * * * * * * * * * * * * * * //

dimensions      [0 0 0 0 0 0 0];

internalField   uniform 0;

boundaryField
{
    left
    {
        type            calculated;
        value           nonuniform List<scalar> 
61
(
0.98273134
1.0349304
1.0349304
1.0349304
1.0349304
0.98273134
0.98273134
1.0349304
1.0349304
1.0349304
1.0349304
1.0349304
0.98273134
0.98273134
1.0349304
0.98273134
0.98273134
0.98273134
1.0349304
1.0349304
1.0349304
1.0349304
1.0349304
1.0349304
1.0349304
1.0349304
1.0349304
0.98273134
1.0349304
1.0349304
0.98273134
0.98273134
0.98273134
1.0349304
1.0349304
1.0349304
1.0349304
1.0349304
1.0349304
1.0349304
1.0349304
1.0349304
0.98273134
1.0349304
1.0349304
1.0349304
1.0349304
0.98273134
1.0349304
1.0349304
1.0349304
0.98273134
0.98273134
0.98273134
0.98273134
0.98273134
0.98273134
0.98273134
0.98273134
1.0349304
1.0349304
)
;
    }
    right
    {
        type            calculated;
        value           nonuniform List<scalar> 0();
    }
    back
    {
        type            calculated;
        value           nonuniform List<scalar> 0();
    }
    front
    {
        type            calculated;
        value           nonuniform List<scalar> 0();
    }
    bottom
    {
        type            calculated;
        value           nonuniform List<scalar> 
72
(
1.0526305
1.0650841
1.0650841
1.0470957
1.0322217
0.9881594
1.0470957
1.0322217
1.0232602
1.0605498
1.0605498
1.0499228
1.0499228
1.0605498
1.0605498
1.0627358
1.0627358
1.0499228
1.0499228
0.97800801
0.97800801
1.0526305
1.0526305
1.0526305
1.0322217
1.0526305
1.0650841
0.75023107
0.75023107
0.87231708
0.87231708
0.75023107
0.76747618
1.0650841
1.0322217
1.0322217
0.7619764
0.7619764
1.0627358
1.0627358
1.0470957
1.0625042
1.0627358
1.0627358
0.9881594
0.9881594
0.9881594
1.0470957
0.9881594
0.9881594
1.0499228
0.7619764
1.0625042
1.0625042
1.0625042
1.0232602
1.0232602
1.0232602
0.97800801
0.97800801
1.0627358
0.75023107
0.87231708
0.87231708
0.76747618
0.76747618
0.7619764
1.0627358
1.0499228
1.0499228
0.76747618
0.97800801
)
;
    }
    top
    {
        type            calculated;
        value           nonuniform List<scalar> 
157
(
1.0517589
1.0647691
1.0647691
1.0582982
1.0647691
1.0647691
1.0517589
1.0008013
1.0582982
1.0582982
1.024316
0.96153163
0.96153163
1.0041274
1.0008013
1.024316
1.0041274
0.96153163
1.0582982
1.0582982
1.024316
1.024316
0.96153163
1.0008013
1.0008013
1.0647691
1.0008013
1.0008013
1.0008013
1.0647691
1.0647691
1.0647691
1.0647691
1.0647691
0.96153163
1.0647691
1.0517589
1.0517589
1.0517589
1.0517589
1.0517589
1.0041274
1.024316
0.96153163
0.96153163
0.96153163
1.0008013
1.0008013
1.0008013
1.024316
1.0647691
1.024316
1.0582982
1.0582982
1.0517589
1.024316
1.0582982
1.0582982
1.024316
0.96153163
0.96153163
1.0647691
0.96153163
1.0008013
1.0008013
1.0041274
1.0008013
1.0008013
1.0008013
1.0647691
1.024316
1.0647691
1.0647691
0.96153163
0.96153163
0.96153163
1.0008013
1.0517589
1.0517589
1.0517589
1.0517589
1.0582982
1.0582982
1.0582982
1.0582982
1.0582982
1.0582982
1.0582982
1.0582982
1.0582982
0.96153163
0.96153163
1.0008013
1.0517589
1.0517589
1.0517589
1.0008013
1.0582982
1.0041274
1.0041274
1.0041274
1.0041274
1.0041274
1.0008013
1.0008013
1.0008013
1.0041274
1.0041274
1.0041274
1.0582982
1.0582982
1.0582982
1.0008013
1.0008013
1.0008013
1.0647691
1.0647691
1.0647691
1.0647691
1.0647691
1.0647691
1.0647691
1.0647691
1.0647691
0.96153163
0.96153163
0.96153163
1.0517589
1.0517589
1.0517589
1.0041274
1.0041274
1.0517589
1.0008013
1.0008013
1.0008013
1.0008013
1.0008013
1.0008013
1.024316
1.024316
1.024316
1.0647691
1.0647691
1.0647691
1.0582982
1.0582982
1.0582982
1.024316
1.024316
1.0582982
1.0041274
1.0041274
1.0041274
1.024316
1.024316
1.024316
)
;
    }
    tower
    {
        type            calculated;
        value           nonuniform List<scalar> 
948
(
0.97928715
0.99473612
0.99581804
0.98838924
0.99149784
0.99642026
0.97826262
0.9810242
0.99422092
0.996097
0.98681897
0.99236374
0.99649596
0.98064257
0.99448813
0.99399819
0.99559789
0.99586317
0.98802431
0.9865715
0.99126242
0.99208776
0.99618144
0.99626953
0.9994602
0.99846529
0.99879119
0.99358688
0.99448214
0.99912594
0.988416
0.99715459
0.99950568
0.99003701
0.99660345
0.99960172
0.98185461
0.98552377
0.99513305
0.99807728
0.99552343
0.99908228
0.99256821
0.98950699
0.99527475
0.99063377
0.99947156
0.99607285
0.97646142
0.98676299
0.983546
0.99764716
0.99370254
0.99930789
0.99628989
0.99139549
0.98538181
0.99597561
0.99303385
0.99964412
0.99644188
0.98290025
0.99491241
0.99344338
0.99528313
0.99607131
0.98925206
0.9848719
0.99032829
0.99280671
0.99585041
0.99621454
0.99159968
0.99164695
0.99144773
0.99106588
0.98674613
0.98969524
0.98675712
0.99313062
0.98897309
0.99388291
0.99489999
0.99180362
1.0347673
1.0425762
0.99202996
1.0121334
1.0411278
0.99718773
0.98275189
0.98675776
1.0026564
1.0075751
0.98469107
1.0341305
0.98960863
1.0316465
1.002372
0.99764623
0.98889516
0.9855977
0.98943616
0.99580834
0.98453505
0.99016335
0.98701919
0.9852434
0.99013739
0.98624702
0.99114261
0.99339274
0.99438159
1.0057616
1.0292198
1.0355555
1.0061073
0.99162354
1.0264739
1.0041704
1.00016
0.9908875
0.99218107
1.0001654
0.9866808
1.0415213
1.0427343
1.028
1.0323598
0.98338559
0.99076669
0.97801542
0.9849535
0.99519956
1.0219045
1.0061909
0.99314942
0.99204775
1.0022403
1.0203432
1.0160767
1.0099942
1.0189148
1.02891
0.98733832
1.0105924
1.0473204
0.98685847
1.0152466
0.99993403
0.99123013
1.004596
0.9803812
0.99200904
1.0364949
0.98198246
0.9832004
0.98577382
0.98734617
0.98633508
0.93416541
0.98426918
1.0195474
0.98442158
1.0555463
0.91214864
0.98496119
0.98678813
0.98747576
0.98716153
0.99049957
0.99270823
0.98884263
1.0001084
0.99243352
1.0014611
0.98963971
1.0230823
1.0267471
0.97438125
0.99320858
0.99304317
0.98714293
0.98539927
0.98100785
0.98953769
0.98152009
0.98550456
0.99570877
1.0122215
1.0052533
1.0029982
1.0125274
0.98750392
0.98685656
1.0164206
1.0259065
1.0093771
1.0113983
1.0059833
1.0073609
1.0256817
1.0157463
1.0024957
0.97438297
1.0284817
0.99959162
1.0079556
0.99376856
0.99730614
0.98275359
0.98968908
0.98806908
0.98712905
0.98398972
0.98866882
0.98657875
0.94440426
1.0391252
0.98958815
0.98816293
0.98770133
0.98520841
0.98843635
0.98726697
1.0350487
1.0154334
1.0187918
1.0178219
1.0360396
1.0191937
0.99416526
0.99764548
1.0024117
1.0164146
1.0136925
1.0069425
0.99522349
1.0125844
1.0042528
0.9888693
0.99510255
0.98825993
0.98970574
0.97943523
0.98026919
0.99882776
0.99897912
0.98929022
0.99552209
1.0584034
1.0300806
0.9850708
0.98490549
1.0242927
0.98450225
1.0135031
1.0138568
1.0558645
1.0488417
0.98372369
0.98094248
1.0217102
0.98429976
1.0486299
1.0146897
1.0161267
1.0104204
0.9852277
0.98039062
1.0001153
1.0089406
0.98410267
0.98561934
1.0082624
0.99480449
0.98696008
1.0320452
0.98746926
1.0535492
0.96699157
0.98578702
0.98835861
0.92339383
0.96243576
0.9831848
1.0152439
1.0293423
0.98355491
1.0214387
0.98573287
0.98320618
1.042148
1.0504365
0.92239484
0.94582376
0.90966497
1.0136614
1.0070347
1.0152638
1.0071105
1.0122606
1.0150069
1.0014675
1.0107701
1.004839
0.97447096
0.98807669
1.015636
0.9785482
1.0381239
1.0409429
0.97982895
1.0438615
0.97654588
0.99303481
0.99425029
0.99149001
0.99469257
0.99422187
0.99114062
0.99194426
0.99432112
0.99385426
0.98784564
1.0207342
0.98625628
1.0238692
0.98206422
1.0070515
0.99819218
1.0044279
0.98363772
1.0116324
1.0085779
1.0093584
0.98716689
1.0243894
1.0200318
1.0127664
0.98799577
1.028172
1.0233979
1.0216148
0.98994901
1.0374867
1.0315936
1.0239944
0.99058557
1.039755
1.0335516
1.0289213
0.99307275
1.0433444
1.0364805
1.0296967
0.99419791
1.043305
1.0363307
1.0288937
0.99870749
1.0389421
1.0320434
1.0274867
1.0006371
1.0360156
1.0292964
1.0197554
1.007995
1.0229996
1.0173572
1.0160807
0.99141647
0.99183432
0.99131685
0.98425054
0.99158127
0.9921649
0.99234773
0.99169855
0.99121774
0.99222242
0.97519515
0.98384931
0.98840092
0.98815585
0.9860882
0.97695395
0.98717697
0.98363611
0.98450283
0.99347945
0.99211111
0.99245216
0.99075459
0.99479963
0.99122355
0.99429522
0.99424525
0.99441083
0.99478127
0.99473131
0.99505472
0.9950769
0.9918932
1.0109003
1.0176394
0.98758587
0.98814987
0.98836316
0.9869215
0.98598626
0.984583
0.98999133
0.98727403
0.9849256
0.98432029
0.98225631
0.99141617
0.99240692
0.9924168
0.99387183
0.99276335
0.99312981
0.99417669
0.99335243
0.99557762
0.99139061
0.99436633
0.9981923
0.99709344
0.97508583
0.97792813
0.99452304
0.9919867
0.993832
0.99061536
0.9912182
0.99432448
0.99339536
1.0072341
1.0051153
0.99793814
0.99946497
0.98808932
0.98862508
0.98669444
0.98259565
1.0026687
1.0107802
0.99034256
0.99581391
0.99881656
0.99894257
0.98878749
0.98805198
0.98394146
0.98517256
0.98669524
0.9798355
0.98784213
0.98584964
0.98640704
0.9855063
0.9905773
0.98838237
0.99299006
0.98886707
0.98125485
0.98243776
0.98422714
0.985078
0.98497762
0.98662645
0.98711343
0.98554737
0.9867781
0.98420102
0.98366789
0.98464798
0.98374199
0.98479079
0.98565435
0.98627839
0.98633671
0.98679207
0.98749572
0.9866366
0.98739494
0.99106001
0.98951284
0.99056197
0.99176968
0.99221787
0.9914462
0.98896679
0.99050828
0.99038618
0.99597595
1.0015316
0.99212858
0.99487927
1.0019533
0.99795527
0.99241864
0.99121285
1.0215099
1.01453
1.0141822
1.0121704
1.0113836
1.0180933
1.0380228
1.0208259
1.0213495
1.0047304
1.0012215
0.96413796
0.96825688
1.0121842
0.99564697
0.95641645
0.95054658
1.0248328
0.93157656
1.0193434
1.0168818
1.0234341
1.0180109
1.0229071
1.018737
1.0191854
1.0240101
1.017304
1.0116828
1.0095757
1.0094261
0.99654174
0.99836408
1.0013832
1.0065547
0.98586552
0.98719322
0.98537197
0.98361425
0.99239637
0.99529071
0.99241941
0.99354159
0.99018929
0.99266724
0.98716412
0.98766335
0.9778209
0.97787821
0.97907599
0.97987394
0.99097637
0.99526569
0.98896204
0.98898247
0.98270708
0.98321626
0.98403085
0.98734868
0.99853075
0.99771809
1.0089716
1.010281
1.0016844
1.0079359
0.98132259
0.98361095
0.98786601
0.98877733
0.98755456
0.98789964
0.98502999
0.98477915
0.98588591
0.98737957
0.98814076
0.98883455
0.98799088
0.98823746
0.98552104
0.98599321
0.98669196
0.98778361
0.99326124
0.997032
0.99978683
1.001089
0.989515
0.99022765
0.9876909
0.98952914
1.0103757
1.0146198
1.0151443
1.0121696
1.0134791
1.0097465
1.0144027
1.0120323
1.0090255
1.0084987
1.003192
1.0070442
0.98562719
0.98859897
0.97291256
0.9737108
0.99484221
0.99047992
0.99463112
0.98957849
0.97341511
0.98195139
0.98811092
0.97888596
0.98342636
0.99444038
0.9929256
0.99479828
0.99560374
0.99006918
0.99997738
0.99763442
0.97216235
0.98335255
0.9800933
0.98087704
0.98707465
0.9886824
0.9840275
0.97724788
0.98038234
0.98238837
0.98932903
0.98973409
0.99109901
0.9923067
0.99475659
0.99464274
0.99269233
0.99349466
0.99326529
0.99534986
0.99573965
0.9905223
0.99211044
0.9949031
0.9926927
1.0045259
1.0004075
0.9956907
0.99908885
0.99006105
0.98816203
0.98462104
0.98740976
0.98565065
0.98382917
0.98350831
1.0075475
0.98985743
0.99230376
1.0249015
1.0039339
1.0225713
0.99740344
0.98935699
0.97733001
0.99153393
0.9930768
0.99123529
0.98180496
1.0029682
0.99250841
1.0592287
0.98489423
1.0071087
0.98470257
1.0250153
1.0388669
1.0488516
0.9839069
1.0105658
0.9841001
1.0145387
1.0408859
1.0235993
0.98536463
0.97890091
1.007018
0.98548896
0.9961435
1.0234395
0.98641732
0.97835314
1.0037204
0.98603492
0.99686325
0.97195572
0.98323718
0.94746105
1.0256593
0.98340624
1.0096928
0.98328579
0.99470416
1.0426527
0.95067287
0.94796428
0.99063838
0.99163124
0.99336523
0.99008932
0.99189507
0.98172793
0.96381761
0.96637165
0.97842518
0.99035382
0.99480903
0.99332196
0.99021946
0.99265753
0.99465884
0.99329417
0.98914039
0.9842636
0.98030912
1.0020455
0.98500944
1.0057751
0.98618054
1.0159671
0.98870427
1.0189277
0.98933835
1.0260308
0.99129347
1.0276862
0.99211233
1.0299734
0.99550462
1.0297158
0.99700321
1.0254871
1.0028143
1.0229024
1.005264
1.0119399
0.9865636
0.98303977
0.99214294
0.98921727
0.9919782
0.99040428
0.98895203
0.97230309
0.97558649
0.97468714
0.97617753
0.99483024
0.99488682
0.99035532
0.99131989
0.99426077
0.99464405
0.99256487
0.99482173
0.99688033
1.0138265
0.98837299
0.98934794
0.98845718
0.98656366
0.98487026
0.98762351
0.98408653
0.97654623
0.98080471
0.98055509
0.99577432
0.99926992
0.99326954
0.99560129
0.97196836
0.97545445
0.97585787
0.97912073
0.99362828
0.99477156
0.99406552
0.99201783
0.99267015
0.99381653
0.99328499
0.99002976
0.99104674
0.99156161
0.99186241
0.99539121
0.99406881
0.99335383
0.99258226
1.00917
1.0032358
1.0018186
1.0030529
0.99658679
0.99677604
0.99787989
1.0011651
0.9860643
0.98423993
1.0069805
0.99286262
0.99570441
0.9894368
0.98945446
0.98884143
0.98721576
0.98260429
0.98561901
0.98660937
0.9862603
0.98721685
0.98489649
0.98122214
0.98264351
0.98620423
0.98517887
0.98798327
0.9894993
0.98344196
0.98428213
0.98636448
0.98600639
0.98368775
0.98388908
0.98538187
0.98591145
0.9868557
0.98680743
0.99747525
0.99476943
0.99811092
0.99397032
1.0195799
1.0171282
1.0195813
1.0049326
0.98912001
0.98837227
1.0102632
0.9961812
0.95727208
0.96192413
1.0210666
1.0224414
1.0237762
1.0241349
1.0149777
1.0123926
1.0000115
1.0033575
0.98681606
0.97940053
0.98741435
0.98627062
0.98477546
0.98212376
0.99399053
0.99351583
0.99513101
0.99538649
0.98975892
0.9924284
0.99479904
0.99845499
0.99475101
0.99180365
0.98823968
0.97804802
0.97997336
0.97838573
0.98012504
0.98737607
0.98597615
0.97847108
0.98086961
0.98088361
0.98150288
0.99073399
0.99153919
0.99571622
0.99579516
0.99292151
0.9909205
0.98446261
0.98577766
1.0008793
1.0067004
1.0042071
0.98222314
0.98859793
0.98832007
0.98584475
0.98667078
0.98877032
0.98858238
0.98647189
0.98718637
0.99598406
0.9985191
0.99102249
0.98883584
1.0113901
1.0119552
1.0108175
1.0115526
1.0069155
1.0052164
0.99174788
0.99206953
0.99182184
0.98996456
0.99060928
0.9903301
0.98948777
0.98954941
0.989978
0.99300078
0.99235012
0.9926253
0.99548378
0.99401764
0.99428313
0.99471952
0.99616257
0.99458792
0.98780476
0.9891131
0.98868162
)
;
    }
    air_to_vegetation
    {
        type            calculated;
        value           nonuniform List<scalar> 0();
    }
    procBoundary0to1
    {
        type            processor;
        value           uniform 0;
    }
    procBoundary0to3
    {
        type            processor;
        value           uniform 0;
    }
    procBoundary0to4
    {
        type            processor;
        value           uniform 0;
    }
    procBoundary0to5
    {
        type            processor;
        value           uniform 0;
    }
    procBoundary0to6
    {
        type            processor;
        value           uniform 0;
    }
    procBoundary0to7
    {
        type            processor;
        value           uniform 0;
    }
}


// ************************************************************************* //
