/*--------------------------------*- C++ -*----------------------------------*\
  =========                 |
  \\      /  F ield         | OpenFOAM: The Open Source CFD Toolbox
   \\    /   O peration     | Website:  https://openfoam.org
    \\  /    A nd           | Version:  8
     \\/     M anipulation  |
\*---------------------------------------------------------------------------*/
/*   Windows 32 and 64 bit porting by blueCAPE: http://www.bluecape.com.pt   *\
|  Based on Windows porting (2.0.x v4) by Symscape: http://www.symscape.com   |
\*---------------------------------------------------------------------------*/
FoamFile
{
    version     2.0;
    format      ascii;
    class       volScalarField;
    location    "0/vegetation";
    object      viewFactorField;
}
// * * * * * * * * * * * * * * * * * * * * * * * * * * * * * * * * * * * * * //

dimensions      [0 0 0 0 0 0 0];

internalField   uniform 0;

boundaryField
{
    left
    {
        type            calculated;
        value           nonuniform List<scalar> 0();
    }
    right
    {
        type            calculated;
        value           nonuniform List<scalar> 
33
(
1.0964403
1.0964403
1.0345928
1.0964403
1.0345928
1.0964403
1.0345928
1.0345928
1.0345928
1.0345928
1.0964403
1.0345928
1.0345928
1.0345928
1.0345928
1.0345928
1.0345928
1.0345928
1.0345928
1.0345928
1.0345928
1.0964403
1.0964403
1.0964403
1.0964403
1.0964403
1.0964403
1.0964403
1.0964403
1.0964403
1.0964403
1.0964403
1.0964403
)
;
    }
    back
    {
        type            calculated;
        value           nonuniform List<scalar> 0();
    }
    front
    {
        type            calculated;
        value           nonuniform List<scalar> 
64
(
1.0194567
1.0755162
1.0755162
1.0194567
1.0194567
1.0194567
1.0194567
1.0755162
1.0194567
1.0194567
1.0194567
1.0194567
1.0755162
1.0194567
1.0194567
1.0194567
1.0194567
1.0194567
1.0194567
1.0755162
1.0755162
1.0755162
1.0194567
1.0194567
1.0194567
1.0194567
1.0194567
1.0194567
1.0194567
1.0194567
1.0194567
1.0194567
1.0194567
1.0194567
1.0755162
1.0755162
1.0755162
1.0194567
1.0755162
1.0755162
1.0755162
1.0755162
1.0194567
1.0194567
1.0755162
1.0755162
1.0755162
1.0755162
1.0194567
1.0755162
1.0755162
1.0755162
1.0194567
1.0194567
1.0194567
1.0194567
1.0194567
1.0194567
1.0194567
1.0194567
1.0194567
1.0755162
1.0755162
1.0755162
)
;
    }
    bottom
    {
        type            calculated;
        value           nonuniform List<scalar> 
96
(
1.1001419
1.117203
1.1001419
1.117203
1.0265929
1.0087112
0.97482259
1.0265929
1.0502332
0.97482259
0.99603651
0.99603651
1.0055373
0.99603651
1.0502332
1.0502332
0.99463136
0.99463136
1.0055373
1.0087112
1.0087112
1.1001419
1.117203
1.0502332
1.0502332
0.98079423
0.9973509
1.1001419
1.0087112
0.97482259
0.97482259
1.0502332
1.117203
0.97360194
0.98079423
0.98205994
0.98205994
0.99603651
1.0265929
0.98205994
0.98205994
0.99463136
0.99463136
1.0502332
1.0055373
1.0055373
0.99603651
1.0055373
1.0502332
0.9973509
1.0232576
0.95162849
0.97360194
1.0232576
1.027596
0.95162849
0.95162849
1.0087112
1.0087112
1.0265929
0.98079423
1.1028853
1.1028853
0.98079423
1.1049646
1.1049646
0.99463136
1.0232576
1.1014681
1.1014681
0.95162849
1.0975439
1.0975439
1.0232576
1.0232576
1.0232576
0.95162849
0.95162849
0.9973509
1.1028853
1.1028853
0.97360194
1.1049646
1.1049646
0.99463136
1.027596
0.9973509
1.1014681
1.1014681
0.97360194
1.0975439
1.0975439
1.027596
1.027596
1.027596
0.95162849
)
;
    }
    top
    {
        type            calculated;
        value           nonuniform List<scalar> 
51
(
1.0446186
1.112038
1.0446186
1.022753
1.0064286
1.112038
1.0152091
1.0446186
1.0152091
1.112038
1.022753
1.0064286
1.022753
1.0064286
1.0064286
1.0064286
1.0064286
1.0064286
1.0064286
1.0064286
1.0152091
1.0152091
1.022753
1.112038
1.112038
1.112038
1.112038
1.0446186
1.0446186
1.0446186
1.0446186
1.0446186
1.0446186
1.0446186
1.0446186
1.0446186
1.112038
1.112038
1.112038
1.022753
1.022753
1.0152091
1.0152091
1.0152091
1.0152091
1.0064286
1.022753
1.022753
1.0152091
1.0152091
1.112038
)
;
    }
    tower
    {
        type            calculated;
        value           nonuniform List<scalar> 
364
(
0.99862774
0.99989364
0.99638581
0.99867033
0.99885753
0.99748635
0.99626654
0.91904446
0.93808531
0.91471345
0.92068794
0.99913234
0.92505296
0.94316373
0.92841296
0.93082352
0.89592175
0.88730205
0.90909476
0.89252584
0.906446
0.9997185
0.99582246
0.9987994
0.99571128
0.97624007
0.92273505
0.98506885
0.93565003
0.9831318
0.90959292
0.90154619
0.93505737
0.91561092
0.93758474
0.91829315
0.95834502
0.9537126
0.93444684
0.939478
0.94890271
0.95586888
0.93679995
0.95111974
1.0051444
1.0026963
0.98934415
0.99345899
0.97139621
0.96288819
0.9817054
0.97626659
0.92581072
0.98155512
0.98820449
0.98194836
0.93323641
0.98575928
1.011618
1.0135573
0.98808927
0.98826695
0.90339311
0.99268491
0.94200235
0.95150499
1.0143131
0.8759696
1.0175965
0.99814459
0.99935565
0.99926967
0.99171921
0.98918693
1.0000136
0.99849507
0.99654782
0.91554399
0.92693056
0.88051439
0.87396846
0.99942022
0.9999141
0.99976676
0.99209853
0.98668028
0.92879615
0.93132401
0.94862144
0.94124072
0.99435286
1.0012217
0.95972931
0.93874655
0.89954031
0.9115864
0.88286271
0.89848066
0.89691037
0.90321081
1.0013277
1.0006286
0.99273183
0.99241701
1.0013781
0.99743759
1.0002554
0.99578407
0.9971935
0.99121252
0.99019196
0.99512822
0.99413016
0.90924708
0.90758634
0.93178888
0.9298902
0.91235428
0.92349949
0.96063207
0.9572607
0.95572222
0.95603294
0.93188442
0.94072729
0.93620009
0.94330907
0.94561059
0.94641762
0.95290098
0.95472671
0.93909935
0.94301329
0.99464495
0.99524816
0.99114794
0.98790586
0.99859417
0.99580908
0.93987846
0.93248096
0.92074319
0.92617253
0.95314843
0.94785022
0.94396219
0.94587703
0.94901584
0.95383882
1.1107534
1.1103104
1.009621
1.0006876
0.99824898
0.99898002
1.0006692
0.99858908
0.996403
1.1105735
1.000002
0.9988994
0.9952407
1.0849687
0.98201722
1.1073911
1.002337
0.99987234
1.0051549
0.99983285
0.98851896
0.99755501
1.0344152
0.96811999
0.98461175
0.97129559
0.98752959
0.98661889
0.99295645
0.98763477
1.0064996
1.0087568
0.98941716
1.0016136
1.0083841
1.003266
0.99973868
0.99114665
0.99011657
1.0039186
0.99285016
1.0032296
0.99183648
0.9981067
0.98937387
0.9830107
0.99679548
0.99477112
0.99085756
0.97729673
0.9883689
0.97954371
1.0074181
1.0036003
1.0018344
1.0000006
0.98443689
0.99195443
0.99696162
0.99494825
0.97852754
0.98026709
0.97566916
0.9531481
0.98277113
0.98649059
0.97729602
0.98621146
0.98224158
0.99075369
0.99100187
0.97924148
0.9891583
0.98368433
1.0095678
1.0076053
1.0084022
1.0153234
0.98485236
0.99227275
0.9951877
0.99626395
0.99889008
1.0004217
1.0016261
1.0007352
1.0036432
0.86441595
1.0167284
1.0067276
0.99780855
1.0003071
0.99962493
1.0005099
1.0003115
0.99990222
0.99125483
1.1109721
0.99048951
1.1088606
1.059517
1.0117202
1.0007895
1.0006523
1.0008344
0.99738517
0.99764094
0.92177628
0.99956543
0.99849365
0.99915478
1.0006644
1.0005638
1.0005022
1.1110914
0.99255347
1.1036231
0.98131197
0.93511702
0.9470653
1.0944201
0.99321621
1.0036139
1.0019311
1.0064875
0.97112017
0.96786615
0.94337529
0.90205799
0.89326105
0.89075755
0.88897507
0.89371865
0.88510502
0.88818275
1.0023247
1.0018058
1.001145
0.99965368
0.99016979
0.99363695
0.98984403
0.9927781
1.0041854
1.0019209
0.99537612
0.99506856
1.0039912
0.99878154
0.99414625
0.99418289
0.99624186
0.99855135
0.98688626
0.99267791
0.98996799
0.98464301
0.99626277
0.99331411
0.9919573
0.9934393
0.91541571
0.92662638
0.92023662
0.95956952
0.95804186
0.93821306
0.94002073
0.94312257
0.95161711
0.9451913
1.0010715
1.0016568
1.0011788
0.99999805
1.000014
0.9996531
1.000622
1.0002599
1.0004134
0.99394495
0.99726022
0.99794037
0.99599801
0.99289035
0.99329753
0.98977617
0.98123045
0.99705167
1.000845
0.99710121
0.99530952
0.93501164
0.92917099
0.94993549
1.0005646
1.0005915
1.0007596
1.0012697
1.0007736
1.0010458
0.94809117
0.95133251
0.99808314
0.99862341
0.99882606
0.99919085
0.99978131
0.99938043
1.0004464
1.0002124
1.000354
1.0000575
1.0000953
1.0002377
)
;
    }
    air_to_vegetation
    {
        type            calculated;
        value           nonuniform List<scalar> 0();
    }
    procBoundary3to0
    {
        type            processor;
        value           uniform 0;
    }
    procBoundary3to2
    {
        type            processor;
        value           uniform 0;
    }
    procBoundary3to4
    {
        type            processor;
        value           uniform 0;
    }
    procBoundary3to6
    {
        type            processor;
        value           uniform 0;
    }
}


// ************************************************************************* //
