/*--------------------------------*- C++ -*----------------------------------*\
  =========                 |
  \\      /  F ield         | OpenFOAM: The Open Source CFD Toolbox
   \\    /   O peration     | Website:  https://openfoam.org
    \\  /    A nd           | Version:  8
     \\/     M anipulation  |
\*---------------------------------------------------------------------------*/
/*   Windows 32 and 64 bit porting by blueCAPE: http://www.bluecape.com.pt   *\
|  Based on Windows porting (2.0.x v4) by Symscape: http://www.symscape.com   |
\*---------------------------------------------------------------------------*/
FoamFile
{
    version     2.0;
    format      ascii;
    class       volScalarField;
    location    "0/vegetation";
    object      viewFactorField;
}
// * * * * * * * * * * * * * * * * * * * * * * * * * * * * * * * * * * * * * //

dimensions      [0 0 0 0 0 0 0];

internalField   uniform 0;

boundaryField
{
    left
    {
        type            calculated;
        value           nonuniform List<scalar> 
154
(
1.0680242
1.0680242
1.0680242
1.0680242
1.0680242
1.0680242
1.0680242
1.0680242
1.0680242
1.0680242
1.0680242
1.0680242
1.0680242
1.0680242
1.0680242
1.0680242
1.04917
1.04917
1.04917
1.04917
1.04917
1.04917
1.04917
1.04917
1.04917
1.04917
1.04917
1.04917
1.04917
1.04917
1.04917
1.04917
1.04917
1.04917
1.0480199
1.04917
1.0480199
1.0405719
1.0405719
1.0405719
1.04917
1.04917
1.04917
1.04917
1.04917
1.04917
1.04917
1.04917
1.04917
1.04917
1.04917
1.04917
1.04917
1.04917
1.04917
1.04917
1.0405719
1.04917
1.04917
1.0405719
1.0480199
1.0480199
1.0480199
1.0480199
1.0480199
1.0480199
1.0480199
1.0405719
1.0405719
1.0405719
1.0480199
1.0480199
1.0480199
1.0480199
1.0405719
1.0405719
1.0405719
1.0480199
1.0480199
1.0480199
1.0480199
1.0405719
1.0405719
1.0405719
1.0480199
1.0451838
1.0451838
1.0480199
1.0451838
1.0451838
1.0547763
1.0547763
1.0547763
1.0547763
1.0547763
1.0547763
1.0405719
1.0405719
1.0547763
1.0405719
1.0405719
1.0547763
1.0547763
1.0547763
1.0547763
1.0451838
1.0451838
1.0547763
1.0547763
1.0451838
1.0451838
1.0451838
1.0451838
1.0451838
1.0741723
1.0547763
1.0741723
1.0547763
1.0547763
1.0451838
1.0741723
1.0741723
1.0451838
1.0741723
1.0741723
1.0451838
1.0451838
1.0741723
1.0451838
1.0741723
1.0741723
1.0741723
1.0741723
1.0741723
1.0741723
1.0741723
1.0741723
1.0741723
1.0741723
1.0741723
1.0741723
1.0741723
1.0741723
1.0741723
1.0741723
1.0741723
1.0741723
1.0741723
1.0741723
1.0741723
1.0741723
1.0741723
1.0741723
1.0741723
)
;
    }
    right
    {
        type            calculated;
        value           nonuniform List<scalar> 0();
    }
    back
    {
        type            calculated;
        value           nonuniform List<scalar> 
49
(
1.0432899
1.0432899
1.0432899
1.0432899
1.0432899
1.0432899
1.0432899
1.0432899
1.0432899
1.0432899
1.007414
1.0432899
1.0432899
1.007414
1.007414
1.007414
1.007414
1.007414
1.007414
1.007414
1.007414
1.007414
1.007414
1.007414
1.0432899
1.007414
1.007414
1.0432899
1.0432899
1.007414
1.007414
1.007414
1.0432899
1.007414
1.007414
1.007414
1.007414
1.007414
1.007414
1.007414
1.007414
1.007414
1.007414
1.007414
1.007414
1.007414
1.007414
1.007414
1.007414
)
;
    }
    front
    {
        type            calculated;
        value           nonuniform List<scalar> 
56
(
1.0377975
1.0377975
1.0377975
1.0377975
1.0624338
1.0624338
1.0624338
1.0377975
1.0377975
1.0377975
1.0377975
1.0377975
1.0377975
1.0377975
1.0624338
1.0624338
1.0624338
1.0377975
1.0624338
1.0624338
1.0624338
1.0694833
1.0694833
1.0694833
1.0694833
1.0694833
1.0377975
1.0377975
1.0377975
1.0377975
1.0624338
1.0624338
1.0624338
1.0694833
1.0694833
1.0694833
1.0694833
1.0694833
1.0694833
1.0694833
1.0694833
1.0694833
1.0694833
1.0694833
1.0624338
1.0624338
1.0624338
1.0624338
1.0624338
1.0624338
1.0624338
1.0624338
1.0624338
1.0624338
1.0624338
1.0624338
)
;
    }
    bottom
    {
        type            calculated;
        value           nonuniform List<scalar> 
307
(
1.0034636
1.0034636
1.064624
1.064624
1.0050258
1.0128994
0.9914651
1.0342968
1.025818
1.025818
0.97749316
1.0342968
1.0115926
1.0315564
1.0115926
1.0381374
1.0315564
0.9914651
0.9914651
1.0023741
1.0342968
1.025818
1.025818
1.0118205
0.97749316
1.0342968
0.9914651
1.0342968
1.0315564
1.0381374
1.0115926
1.0315564
1.0342968
0.97749316
1.0595547
1.0382171
1.0110881
1.0110881
1.0422443
1.0382171
0.97749316
1.0314435
1.0314435
1.0595547
1.0595547
1.0110881
1.0110881
1.0382171
1.0422443
1.0595547
1.111498
1.0962813
1.111498
1.111498
1.111498
1.111498
1.0962813
1.0382171
0.93983161
0.93983161
1.0078291
1.0078291
1.0078291
1.0099482
1.0099482
1.0099482
1.0115926
1.0826029
1.0826029
1.0381374
1.0381374
1.0078291
1.0116976
1.0116976
1.0116976
1.0315564
1.0315564
1.0116976
1.0826029
1.0826029
1.0144461
1.0144461
1.0144461
1.0144461
1.0422443
1.0422443
1.0422443
1.0962813
1.0962813
0.93983161
1.111498
1.111498
0.93983161
1.0128994
1.0314435
1.0128994
1.0314435
1.0314435
1.0314435
1.010979
1.0011465
1.0011465
1.0011465
1.0011465
0.98860409
1.0096564
0.98860409
0.98860409
0.98860409
1.0096564
1.0096564
1.0096564
1.0648869
1.0648869
1.0050258
1.064624
1.064624
1.0665405
1.0665405
1.0648869
1.0648869
1.005449
1.005449
1.1289832
1.1289832
1.0655412
1.0655412
1.1289832
1.1289832
1.0655412
1.0655412
1.0665405
1.0665405
1.0065953
1.0065953
1.005449
1.005449
1.0638854
1.0638854
1.0636157
1.0638854
1.0638854
1.0636157
1.0065953
1.0065953
1.0045525
1.0038165
1.0038165
1.0045525
1.0636157
1.0637877
1.0636157
1.0637877
1.0045525
1.0048502
1.0045525
1.0048502
1.0038165
1.0038165
1.0033883
1.0033883
1.0033883
1.0029737
1.0029737
1.0028996
1.0028996
1.0050258
1.0034636
1.0048502
1.0041172
1.0033883
1.0644327
1.0644327
1.0059628
1.0059628
1.0059628
0.98860409
1.010979
1.0644327
1.0644327
1.0059628
1.0059628
1.0059628
1.0041172
1.0637877
1.0637877
1.0048502
1.0657978
1.0657978
1.0670599
1.0657978
1.0657978
1.0670599
1.010979
1.010979
1.0030117
1.0050258
1.0030117
1.0030117
1.0028996
1.0034636
1.0034636
1.0029737
1.0029737
1.0028996
1.0041172
1.0096564
1.0041172
1.0030117
1.0030117
1.0128994
0.99633785
0.99633785
0.99128716
0.99633785
0.99633785
0.99633785
1.0128994
0.99633785
1.0670599
1.0128994
1.0670599
1.0608268
1.0608268
1.0645582
1.0608268
1.0608268
1.0645582
1.0645582
1.0645582
1.0128994
1.1286912
1.1286912
1.1286912
1.1286912
1.0637513
1.0637513
1.0637513
1.0568547
1.0637513
1.0568547
1.0568547
1.0568547
1.0568547
1.0568547
1.0568547
1.0023741
1.0044477
1.0145023
1.0118205
0.9787728
1.0044477
1.010593
1.0044477
0.9914651
1.0023741
1.0118205
1.0118205
1.0145023
1.0044477
0.9787728
0.9787728
1.010593
1.0342776
1.0145023
1.0949388
1.0309512
0.97293085
1.0342776
1.0145023
0.97293085
1.0309512
1.0342776
1.0309512
0.97293085
1.0309512
1.010593
0.97293085
1.0342776
1.0023741
1.0118205
1.0118205
1.0099482
1.044034
1.044034
1.0949388
1.0309512
1.044034
1.044034
1.0949388
1.0949388
1.0949388
1.0128994
0.99128716
0.99128716
0.99128716
1.010593
0.99128716
1.010593
1.010593
0.99128716
1.0128994
1.0128994
0.9787728
1.010593
1.010593
1.010593
)
;
    }
    top
    {
        type            calculated;
        value           nonuniform List<scalar> 
164
(
1.004633
1.0057341
1.0654958
1.0654958
1.0057341
1.0653222
1.0653222
1.0054363
1.0654958
1.0654958
1.0067078
1.0067078
1.0653222
1.0653222
1.0054363
1.0054363
1.0040116
1.1294677
1.1294677
1.0661392
1.0661392
1.064777
1.1294677
1.1294677
1.0661392
1.0661392
1.064777
1.0668475
1.0668475
1.0067078
1.0067078
1.0063524
1.0668475
1.0668475
1.0067078
1.0648249
1.0648249
1.0058105
1.064777
1.0648249
1.0648249
1.064777
1.0648249
1.0648249
1.0063524
1.0063524
1.0063524
1.0058105
1.0048755
1.0048755
1.0048755
1.0040116
1.0035689
1.0040076
1.0053663
1.0048755
1.0040116
1.0035689
1.0035689
1.0054363
1.0040116
1.0058105
1.0058105
1.0053663
1.0040076
1.0662451
1.0662451
1.0088907
1.007208
1.007208
1.0042473
1.0662451
1.0662451
1.0088907
1.0053663
1.0053663
1.0042473
1.0648249
1.0648249
1.0676893
1.0676893
1.0676893
1.0676893
1.0088907
1.0088907
1.007208
1.0083772
1.007208
1.0083772
1.0042473
1.0052956
1.0684875
1.0684875
1.0102494
1.0083772
1.0083772
1.0052956
1.0050445
1.0057341
1.004633
1.0050445
1.004633
1.0057341
1.004633
1.0040076
1.0050445
1.0035689
1.0040076
1.0042473
1.0042473
1.0042473
1.0052956
1.0052956
1.0050445
1.0050445
1.0684875
1.0684875
1.0102494
1.0082481
1.0082481
1.0063558
1.0063558
1.0684599
1.0684599
1.0684599
1.0684599
1.0102494
1.0082481
1.0082481
1.0063558
1.0063558
1.0694194
1.0694194
1.1318952
1.1318952
1.0694194
1.0694194
1.1318952
1.1318952
1.0102494
1.0409062
1.0409062
1.0409062
1.0409062
1.0086293
1.0086293
1.0131895
1.0131895
0.54686321
1.0086293
1.0086293
1.0131895
1.0131895
0.54686321
1.0072428
1.0072428
1.0123365
1.0123365
0.54686321
1.0072428
1.0072428
1.0123365
1.0123365
0.54686321
)
;
    }
    Building
    {
        type            calculated;
        value           nonuniform List<scalar> 
676
(
1.012026
1.0128516
1.0124123
1.0124598
1.0202212
1.0192544
1.0118825
1.0122675
1.0114591
1.0118994
1.0117566
1.0110783
1.0113588
1.0112175
1.0192693
1.0105255
1.0191389
1.0095534
1.0109008
1.0113155
1.0112838
1.009796
1.0104342
1.0102148
1.0110929
1.0113648
1.0110756
1.0107768
1.0110822
1.0099031
1.0186854
1.0190994
1.0198051
1.0121586
1.01217
1.0127308
1.0127043
1.0122888
1.0125579
1.0125945
1.0123146
1.0120146
1.0117432
1.011716
1.0119806
1.0121443
1.0121236
1.01159
1.0115975
1.0105586
1.0088543
1.0090654
1.0088565
1.0097801
1.0100269
1.0110377
1.011034
1.0115752
1.0115608
1.0114464
1.011176
1.0111607
1.0114203
1.0095217
1.0095719
1.0093648
1.0108211
1.0116289
1.011352
1.0110943
1.0107994
1.0108238
1.0097392
1.0101967
1.0099756
1.0094704
1.0096441
1.0096825
1.0197572
1.0194018
1.0130466
1.0129996
1.0134486
1.0126055
1.020287
1.0131952
1.0136
1.0116364
1.0124696
1.012214
1.0129139
1.0125012
1.0130614
1.0127821
1.0113475
1.0118433
1.0116558
1.0100339
1.0104476
1.0111785
1.0512098
1.0114334
1.0105925
1.0111887
1.0101532
1.0198687
1.0195784
1.0195389
1.0197153
1.0131909
1.0128989
1.0128784
1.0131484
1.0133206
1.0132981
1.0127411
1.0127519
1.0133348
1.0133446
1.0134711
1.0137523
1.0119069
1.0121616
1.0097358
1.0102808
1.0105256
1.0109287
1.0106187
1.0115174
1.0109304
1.0104341
1.0106788
1.0098703
1.0103724
1.0121866
1.0120428
1.0117836
1.0116142
1.0116461
1.0113346
1.0114725
1.0109136
1.0106658
1.0111911
1.0110517
1.0126211
1.0127672
1.0127967
1.0132097
1.0129383
1.0200204
1.019625
1.0119229
1.0195892
1.0198293
1.0193709
1.0190174
1.0197678
1.0118387
1.0197906
1.0201231
1.0199556
1.0200583
1.0197234
1.0194973
1.0123362
1.0116403
1.0196477
1.0196921
1.0197506
1.019892
1.0199321
1.0199947
1.0196619
1.0193738
1.0197073
1.0198706
1.0198101
1.0100345
1.0503502
1.0090089
1.0195316
1.0108009
1.0095302
1.0088667
1.0097796
1.0193154
1.0495539
1.0098633
1.0116979
1.0197332
1.0503635
1.050041
1.0091776
1.0501967
1.0106709
1.0500785
1.0100224
1.019475
1.0196346
1.0195781
1.0105356
1.0097733
1.0104973
1.0090425
1.0123033
1.0125799
1.0201565
1.012434
1.0200304
1.0200929
1.0124486
1.0194831
1.0195417
1.0194317
1.0194461
1.0191412
1.0193182
1.0188976
1.019075
1.0191945
1.0118713
1.0118579
1.0198491
1.0120007
1.0199689
1.0199085
1.0117288
1.0199147
1.0198498
1.0197378
1.0197861
1.0196114
1.0196764
1.0196013
1.019552
1.0194891
1.0188472
1.0185653
1.0187273
1.0189379
1.0188095
1.0189712
1.0102949
1.0102885
1.008761
1.0086213
1.0092868
1.0092988
1.0090583
1.0086895
1.0095387
1.0100314
1.0102659
1.0102832
1.0194255
1.0193688
1.0192566
1.0111685
1.0114381
1.0196766
1.0113068
1.0112974
1.0092948
1.0089208
1.0090986
1.010794
1.0105411
1.0105528
1.0095193
1.0100147
1.0102551
1.0092636
1.0092306
1.0094307
1.0202909
1.0200863
1.0203615
1.0124757
1.020256
1.0200355
1.0201854
1.0198939
1.0202216
1.0203934
1.020324
1.0201889
1.0201534
1.0202559
1.0204333
1.0204639
1.0205357
1.0505557
1.0507682
1.0109204
1.0509901
1.0107435
1.0130364
1.013022
1.0203539
1.0131709
1.0204913
1.020422
1.0128884
1.0134852
1.0136225
1.0205618
1.0206335
1.012187
1.0119104
1.0127571
1.0124701
1.0121878
1.0203279
1.0201442
1.0202188
1.0199806
1.0200477
1.0199383
1.020116
1.0200761
1.0200041
1.0110494
1.0116144
1.0113087
1.0118855
1.0115731
1.0100086
1.0108715
1.0102147
1.010349
1.011253
1.0109952
1.0101392
1.0122231
1.0120692
1.0119359
1.0114996
1.011363
1.0108055
1.0109386
1.0123566
1.0125059
1.0126529
1.0130906
1.0142155
1.0137984
1.0127564
1.0133712
1.0136603
1.0121202
1.0108343
1.0114541
1.020182
1.01406
1.0136461
1.0130746
1.0135091
1.0117275
1.0114771
1.0513099
1.0140892
1.0143721
1.0139423
1.0139518
1.0124434
1.0111271
1.0110758
1.0114956
1.0117889
1.0117276
1.0203665
1.0139283
1.0139057
1.0137889
1.0134949
1.0106604
1.0108467
1.0135332
1.0138126
1.013388
1.0133589
1.0205808
1.0205064
1.020683
1.0206087
1.0111619
1.0496423
1.0142384
1.014104
1.0130486
1.0133452
1.0130489
1.0127318
1.0124043
1.0120685
1.0207808
1.0137749
1.0207065
1.0136431
1.0204755
1.0204011
1.0202893
1.0109036
1.0136896
1.0132338
1.0198278
1.0200038
1.0196808
1.0198571
1.014419
1.0148491
1.014262
1.0146888
1.0142766
1.0139917
1.0141207
1.0136726
1.0145772
1.0145674
1.0147122
1.0150107
1.0141063
1.0144093
1.014553
1.0145298
1.0136532
1.0139558
1.0133303
1.0144339
1.0141456
1.013966
1.0139959
1.0136475
1.0130273
1.0147268
1.0148728
1.0142525
1.0143951
1.0133477
1.0129978
1.0126966
1.0143072
1.013837
1.0087343
1.008456
1.0090936
1.0106265
1.010232
1.0088335
1.0091478
1.0097284
1.0101028
1.0096076
1.0092589
1.0088191
1.0085192
1.008819
1.0090349
1.0107654
1.0107549
1.0103653
1.011149
1.0089252
1.0092575
1.0095023
1.0092653
1.0106402
1.0098552
1.0102357
1.0084385
1.0086124
1.0082266
1.0084282
1.0086223
1.0099735
1.0089471
1.0086861
1.0097295
1.0093725
1.0097435
1.0098473
1.0094839
1.0090456
1.0093686
1.0086366
1.008661
1.0084248
1.0085444
1.0104961
1.0101012
1.010364
1.0087513
1.0089359
1.0090423
1.0090394
1.0096037
1.0098514
1.0099731
1.0099761
1.0094854
1.009489
1.009148
1.0093746
1.0108964
1.0106312
1.0106281
1.0108847
1.0104973
1.0104982
1.0110256
1.011016
1.0087157
1.0089092
1.0086155
1.0085931
1.0090337
1.0090158
1.0091445
1.0093621
1.0105035
1.0105371
1.0099802
1.0099608
1.0101097
1.0103688
1.0082741
1.0083026
1.0083448
1.0085022
1.0096086
1.0098427
1.0094896
1.0094759
1.0088194
1.0084687
1.0352166
1.0102513
1.0084885
1.0085465
1.0084812
1.008854
1.0087683
1.0099836
1.0097236
1.0096023
1.0091489
1.0092568
1.0085773
1.0084986
1.0088429
1.0089405
1.0097245
1.0098476
1.0093715
1.0092572
1.0107627
1.0107599
1.0106299
1.0108921
1.0088
1.0086989
1.0091319
1.0092423
1.0103848
1.0101043
1.0102407
1.0083475
1.0084148
1.0097156
1.009599
1.0089219
1.0092192
1.0116888
1.0081478
1.0088688
1.0081692
1.0083719
1.0082248
1.0091023
1.0090441
1.0811228
1.0082949
1.0082177
1.0083955
1.0082727
0.99657328
1.0235713
1.0088437
1.0074499
1.008125
1.0082028
1.0084822
1.0084041
1.0081685
1.0082225
1.0083554
1.0082947
1.0083132
1.0083061
1.0090399
1.0085659
1.105611
1.0123281
1.0292922
1.008139
1.0081576
1.0083568
1.008318
1.0071748
1.0088094
1.0081236
1.0082208
1.0082266
1.0082895
1.0084009
1.0086312
1.0187818
1.018994
1.0193106
1.0103652
1.0184491
1.0186696
1.0189593
1.0188473
1.0105013
1.0190992
1.0191521
1.0190469
1.0193646
1.0190468
1.0192033
1.0191514
1.010102
1.0189946
1.0190995
1.0102302
1.0192027
1.0188901
1.0192583
1.0190271
1.0194193
1.0194677
1.0195224
1.0192048
1.0192558
1.0193082
1.0192043
1.01882
1.0189196
1.0192574
1.0194138
1.0193607
1.0186113
1.0183366
1.0184989
1.0189418
1.019099
1.0189428
1.0189898
1.0103651
1.0193043
1.0192543
1.0102325
1.0195664
1.019621
1.0193556
1.0194073
1.0195126
1.0194596
1.0193131
1.0191459
1.0192028
1.0191511
1.0190939
1.0190391
)
;
    }
    air_to_vegetation
    {
        type            calculated;
        value           nonuniform List<scalar> 0();
    }
    procBoundary5to0
    {
        type            processor;
        value           uniform 0;
    }
    procBoundary5to1
    {
        type            processor;
        value           uniform 0;
    }
    procBoundary5to2
    {
        type            processor;
        value           uniform 0;
    }
    procBoundary5to3
    {
        type            processor;
        value           uniform 0;
    }
    procBoundary5to4
    {
        type            processor;
        value           uniform 0;
    }
    procBoundary5to9
    {
        type            processor;
        value           uniform 0;
    }
    procBoundary5to11
    {
        type            processor;
        value           uniform 0;
    }
}


// ************************************************************************* //
