/*--------------------------------*- C++ -*----------------------------------*\
  =========                 |
  \\      /  F ield         | OpenFOAM: The Open Source CFD Toolbox
   \\    /   O peration     | Website:  https://openfoam.org
    \\  /    A nd           | Version:  8
     \\/     M anipulation  |
\*---------------------------------------------------------------------------*/
/*   Windows 32 and 64 bit porting by blueCAPE: http://www.bluecape.com.pt   *\
|  Based on Windows porting (2.0.x v4) by Symscape: http://www.symscape.com   |
\*---------------------------------------------------------------------------*/
FoamFile
{
    version     2.0;
    format      ascii;
    class       volScalarField;
    location    "0/vegetation";
    object      viewFactorField;
}
// * * * * * * * * * * * * * * * * * * * * * * * * * * * * * * * * * * * * * //

dimensions      [0 0 0 0 0 0 0];

internalField   uniform 0;

boundaryField
{
    left
    {
        type            calculated;
        value           nonuniform List<scalar> 0();
    }
    right
    {
        type            calculated;
        value           nonuniform List<scalar> 0();
    }
    back
    {
        type            calculated;
        value           nonuniform List<scalar> 0();
    }
    front
    {
        type            calculated;
        value           nonuniform List<scalar> 0();
    }
    bottom
    {
        type            calculated;
        value           nonuniform List<scalar> 
193
(
1.2321188
1.405536
1.405536
1.2321188
1.1580824
1.3667561
1.3667561
1.405536
1.405536
1.3955833
1.3955833
1.3955833
1.405536
1.405536
1.3955833
1.3993717
1.3993717
1.3993717
1.1580824
1.1580824
1.3209536
1.386346
1.3209536
1.386346
1.1081186
1.1081186
1.0844102
1.1093378
1.1764536
1.1577888
1.1976245
1.1764536
1.1093378
1.1577888
1.1441711
1.2201891
1.2711922
1.1902016
1.1976245
1.2321188
1.3667561
1.2767852
1.2711922
1.2826921
1.2767852
1.1902016
1.1902016
1.2201891
1.0463484
1.3209536
1.1081186
1.1764536
1.1245037
1.1577888
1.2711922
1.1764536
1.1902016
1.2834322
1.2711922
1.0133339
1.0844102
1.0294582
1.0463484
1.3209536
1.2749863
1.2749863
1.386346
1.2201891
1.3235125
1.3235125
1.1764536
1.1081186
1.1081186
1.1577888
1.1441711
1.1441711
1.1093378
1.1764536
1.2711922
1.2767852
1.1580824
1.2321188
1.1976245
1.2767852
1.2826921
1.1865323
1.1093378
1.0294582
1.0294582
1.1577888
1.1577888
1.1577888
1.2711922
1.2834322
1.2927644
1.3235125
1.3235125
1.3667561
1.0844102
1.0844102
1.1081186
1.2749863
1.2749863
1.386346
1.2201891
1.1441711
1.1441711
1.1976245
1.3235125
1.1976245
1.5087095
1.5087095
1.5087095
1.3209536
1.3209536
1.3209536
1.5049682
1.5049682
1.3993717
1.2987085
1.2987085
1.2987085
1.4223403
1.4223403
1.2987085
1.386346
1.4103583
1.5087095
1.5049682
1.4103583
1.4103583
1.5049682
1.5049682
1.4103583
1.2711922
1.2711922
1.2927644
1.4223403
1.4223403
1.2946187
1.2834322
1.2927644
1.2927644
1.2927644
1.2834322
1.2834322
1.0463484
1.1245037
1.1245037
1.1865323
1.2798723
1.2826921
1.1245037
1.0361458
1.1865323
1.1865323
1.2826921
1.2798723
1.0294582
1.3365558
1.3365558
1.3365558
1.2946187
1.2946187
1.2946187
1.1437202
1.1437202
1.3245021
1.2798723
1.3132762
1.0361458
1.0361458
1.1437202
1.2798723
1.3245021
1.1437202
1.0361458
1.1437202
1.0133339
1.0133339
1.0361458
1.0463484
1.0133339
1.0133339
1.3365558
1.3365558
1.3365558
1.3245021
1.3245021
1.3132762
1.3132762
1.3132762
1.3132762
)
;
    }
    top
    {
        type            calculated;
        value           nonuniform List<scalar> 0();
    }
    Building
    {
        type            calculated;
        value           nonuniform List<scalar> 
793
(
1.0097274
1.0116865
0.98289433
0.97589941
0.98166915
0.97564601
0.96677662
1.0124259
1.0072049
0.96294776
0.97045041
1.0194797
0.97687288
0.97941252
0.97253324
0.98093445
0.9817482
0.98794161
0.97314069
0.97085608
0.97154946
0.97495345
1.0082417
1.0162239
0.97433707
0.97325064
0.99567097
0.97173853
0.97469318
0.97250217
0.972642
0.99713432
0.97128107
0.9968351
0.97518104
0.97796889
0.97268392
0.97475283
0.97249883
0.9700436
0.97099211
0.97444774
0.97121626
0.97612648
0.97013149
0.96050463
0.95842302
0.96133512
0.96491356
0.95213449
0.95914979
0.96685893
0.94986478
0.96249717
0.95966129
0.99526133
0.99501673
0.95625079
0.95760323
0.99570167
0.96574864
0.96776305
0.96299193
0.96406798
0.95424202
0.9513647
0.9527395
0.95051597
0.96853314
0.96582596
1.0529074
0.94914104
0.97676611
0.97591067
0.99510732
0.99506585
0.9762638
0.97727814
0.99459409
0.9951297
0.9953239
0.99416899
0.97127005
0.9727378
0.97738958
0.97505998
0.96885188
0.96718716
0.97162879
0.97408093
0.96345348
0.95710878
0.96017186
0.99546948
0.99542963
0.99509861
0.99494405
0.99568434
0.96698798
0.96540318
0.96946214
0.95496173
1.0538307
0.9512861
1.027325
0.98620383
1.0365222
0.99493835
1.0380756
0.99480206
1.1891971
0.98596935
0.98750796
0.98080422
1.0171336
0.98621788
0.98341349
1.0193272
0.99733007
1.0376707
0.99700637
0.97740518
1.0027644
1.0472019
0.97606933
0.97782681
0.97933989
0.98374037
0.97381286
0.99332439
0.99346621
0.99571703
0.9691446
0.99385638
0.99365012
0.97307075
0.9945477
0.9935812
0.97451702
0.97531493
0.97276099
0.96900443
0.97102711
0.97509677
0.9932608
0.99332661
0.99373521
0.99411983
0.99414769
0.9937959
0.99376702
0.99468925
0.99391916
0.99430595
0.99406697
0.99417193
0.99391398
0.99427453
0.99536785
0.99565367
0.9616067
0.99499889
0.99522337
0.95548696
0.99565258
0.99544211
0.99510722
0.99490034
0.9959462
0.99623837
0.96155394
0.96368585
0.96405849
0.9685745
0.96355249
0.99476947
0.99453723
0.99505048
0.99529649
0.995257
0.99510793
0.99484297
0.99474009
0.99463668
0.99492184
0.95348166
0.99585622
0.99605241
0.99565752
0.99548322
0.99545904
0.995668
0.99584946
0.99602655
0.9960369
0.99584931
0.95799721
0.95976378
0.95353942
0.95578213
0.95567506
0.95171645
0.96731658
0.99407668
0.99430509
0.99424346
0.99456716
0.9944353
0.9944095
1.0517768
0.99642314
0.9962413
0.99639245
0.99619936
0.99621726
0.99636759
0.99020149
0.98285373
0.98687736
0.99571323
0.97951856
0.99574229
1.0901304
0.99430811
1.0293869
0.97602571
0.97897483
0.98301008
0.97957468
0.96315393
0.96808695
0.96274051
0.96610876
0.97950974
0.9971945
1.0029948
0.95840441
0.95308435
0.95747657
0.95382627
0.95845734
0.95401381
0.99244837
0.94808815
0.94916872
0.95103698
0.99441144
0.99451693
0.99481461
0.9946517
0.99536933
0.99585821
0.99479426
0.99515431
0.99463857
0.99446663
0.99440763
0.99461079
0.95841817
0.96375186
0.96268674
0.95799217
0.95382776
0.95324801
0.99520124
0.99502466
0.99594655
0.99595044
0.99533948
0.99516821
0.99522513
0.99538637
0.99484157
0.99500066
0.99508094
0.99493601
0.99470841
0.99456655
0.99469438
0.99481555
0.99551153
0.99568364
0.99570495
0.99553978
0.9960216
0.99585441
0.99585864
0.9960226
0.99618669
0.99634728
0.99633315
0.99617317
0.96574454
1.0548971
1.0368157
1.0194101
1.0199816
1.0194681
1.0384875
1.0443338
1.0386444
1.0453685
1.0370005
1.0386626
1.0378593
1.0403476
1.0370121
1.0410376
1.0474516
1.0314987
1.0466747
1.0206076
1.0201864
1.0488
1.0321899
1.0380814
1.0380905
1.0204959
1.0496564
1.0402524
1.038764
1.0345997
1.0422396
1.0354137
1.0428656
1.0409475
1.0337353
1.0308744
1.0445273
1.0455351
1.0508553
1.0477092
1.0342665
1.033286
1.038367
1.0404512
1.0358634
1.0371569
1.0424274
1.0393292
1.0341275
1.0369736
1.0376858
1.0377119
1.0202579
1.0195184
1.0200894
1.0207147
1.020294
1.0195937
1.0193106
1.0194943
1.019784
1.0198825
1.0196848
1.0438725
1.0413208
1.0431806
1.0452154
1.0208045
1.0207033
1.0203971
1.0200875
1.0202991
0.99742222
0.99760683
0.99747092
1.0518877
1.0507741
1.0365029
1.0400021
1.0392106
1.0400588
1.0452058
1.0431381
1.0421324
1.0204547
1.0203261
1.020129
1.019756
1.0200681
1.0199391
1.0197018
1.0196338
1.0198171
1.019892
1.0202044
1.0200072
1.0208564
1.0205043
1.0204088
1.020619
1.0198602
1.0195599
1.0434469
1.0191891
1.0386817
1.0197581
1.0196573
1.0190899
1.0191802
1.0392347
1.0194612
1.0195584
1.0394781
1.0193659
1.0192722
0.99679477
0.99652252
1.0208456
0.99755698
1.02073
1.0199591
1.0202819
1.0486942
1.0464146
1.0495006
1.0414366
1.0456143
1.0330687
0.99778608
1.0207551
0.99791001
1.0208664
1.0435463
0.99708655
0.99692923
0.99691291
1.0497231
0.99659821
0.99676681
1.0206365
1.0205194
1.0355049
1.0406841
1.0198608
1.0199654
1.0205123
1.0350188
0.99765902
0.99752326
0.99773465
1.0207989
0.9978042
1.0209552
0.99785197
1.0209098
0.99768592
1.0539085
1.041474
0.99723752
0.99738243
0.99703804
0.99684525
0.99699457
0.99688456
0.99718665
0.9972833
0.99733079
0.99714043
0.99656196
0.99669017
0.99672594
0.99653185
1.0202913
1.0204042
1.0362718
1.0201807
1.0398917
1.0200721
1.0198852
1.0210472
1.0211009
1.0208944
0.99754816
1.020995
1.0211552
0.99762155
1.0211031
0.9976647
0.99750693
1.0211562
1.0212088
1.0212641
0.99759158
1.0209442
0.99775538
1.0210032
0.99763784
0.99770919
1.0210525
0.99742288
0.99725364
0.99729185
0.99738268
0.99746555
0.99737495
0.99751008
0.99733266
1.05722
1.0527416
1.0546834
1.0549983
1.05498
1.0499426
1.0442651
1.0463171
1.0501287
1.0471248
1.0499578
1.0445375
1.0485712
1.0198058
1.0197558
1.0197049
1.0195089
1.0196606
1.0196061
1.0406515
1.0409527
1.0415375
1.0191377
1.0192826
1.0192281
1.0194136
1.0193711
1.01932
1.0419576
1.0520072
1.0454825
1.0460783
1.0490408
1.0524352
1.0486261
1.0530066
1.0568228
1.0555994
1.0377521
1.0206097
1.0206827
1.0205652
1.0203868
1.020338
1.0204502
1.038658
1.0199084
1.0200674
1.020013
1.0202281
1.02017
1.0201195
1.0427711
1.0428332
1.0422502
1.044403
0.99680783
0.99695373
0.9967701
0.99719556
0.99705033
0.99723713
0.99709733
0.9966584
0.9965047
0.99647818
0.99663134
1.0207508
1.0209307
1.0208785
1.0209845
1.0210399
1.0209138
0.99697772
0.99712164
0.9971574
0.99701714
1.0207791
1.0206599
1.0208283
1.021587
1.02152
1.0214363
1.0212869
1.0208692
1.0206588
1.0205304
1.0207409
1.0212718
1.0211556
1.0208291
1.0212132
1.0213796
1.021321
1.0210969
1.0210297
1.0209688
1.0216981
1.0216524
1.0217668
1.0212099
1.0213322
1.0216309
1.0214576
1.0215656
1.0210856
1.021216
1.0209509
1.0213942
1.0214399
1.021502
1.0210038
1.0207945
1.0214051
1.0213419
1.0212155
1.0212782
1.021088
1.0211528
1.0218031
1.0218798
1.0216878
1.0213556
1.0217199
1.0219114
1.0218375
1.0217641
1.0215067
1.021957
1.0219872
1.0220643
1.0209377
1.0211468
1.0216084
1.0215635
1.0214868
1.0218413
1.0216362
1.0217163
0.99619647
0.99621938
0.99564192
0.99677168
0.99504453
0.99528843
0.99570132
0.99511472
0.99562372
0.99510746
0.99513166
0.9950455
0.99513502
0.99548396
0.99528791
0.99547551
0.99568249
0.99590033
0.99612444
1.0376211
1.0376511
0.99674785
0.99616553
0.99593051
0.99656715
0.99698527
0.99671909
0.99695131
0.99673676
0.9974256
0.99757941
0.99746618
0.99753795
0.99662769
0.99668314
0.99738603
0.99745598
0.99734656
0.9974969
0.99730549
0.99721669
0.9973437
0.99718055
0.99726768
0.99710901
0.99722993
0.99714478
0.99634889
0.99640075
0.99648459
0.99644546
0.99694566
0.99708608
0.99705226
0.9969133
0.99701882
0.99688425
0.99685172
0.99718511
0.99696004
0.99728926
0.99722619
0.99733155
0.99726688
0.99741543
0.99737353
0.99730693
0.99707455
0.99711428
0.99699867
0.99715348
0.99707291
0.99719195
0.99703622
0.99684389
0.99688086
0.99675542
0.99691658
0.9967878
0.99682185
0.99560885
0.99672827
0.99671676
0.99502789
0.99526423
0.99564528
0.99607079
0.99509066
0.99506375
0.99559136
0.99502331
0.99556735
0.99511522
0.99499374
0.99507534
0.99544575
0.99521913
0.99515141
0.99494078
0.99501352
0.99585496
0.99579383
0.99600346
0.9957151
0.99592196
1.037591
1.0375596
0.99673669
1.0375306
0.99539542
0.99532346
0.99558949
0.99628744
0.996215
0.99551413
0.99613048
0.99649868
0.99668411
0.99714215
0.99692014
0.9972452
0.99709887
0.99720055
0.99642124
0.99633348
0.99705349
0.99710793
0.99715471
0.99700711
0.99703285
0.99699029
0.99687918
0.99694629
0.99679124
0.99690076
0.99683587
0.99690983
0.99705938
0.99695925
0.99700906
0.99680474
0.99674481
0.9968536
0.99669652
0.99680549
0.99676583
0.99664378
0.99667999
0.99672403
0.9966051
0.99656089
0.99663433
0.99658691
0.9964685
0.99651736
)
;
    }
    air_to_vegetation
    {
        type            calculated;
        value           nonuniform List<scalar> 0();
    }
    procBoundary3to0
    {
        type            processor;
        value           uniform 0;
    }
    procBoundary3to4
    {
        type            processor;
        value           uniform 0;
    }
    procBoundary3to5
    {
        type            processor;
        value           uniform 0;
    }
    procBoundary3to10
    {
        type            processor;
        value           uniform 0;
    }
    procBoundary3to11
    {
        type            processor;
        value           uniform 0;
    }
}


// ************************************************************************* //
