/*--------------------------------*- C++ -*----------------------------------*\
  =========                 |
  \\      /  F ield         | OpenFOAM: The Open Source CFD Toolbox
   \\    /   O peration     | Website:  https://openfoam.org
    \\  /    A nd           | Version:  8
     \\/     M anipulation  |
\*---------------------------------------------------------------------------*/
/*   Windows 32 and 64 bit porting by blueCAPE: http://www.bluecape.com.pt   *\
|  Based on Windows porting (2.0.x v4) by Symscape: http://www.symscape.com   |
\*---------------------------------------------------------------------------*/
FoamFile
{
    version     2.0;
    format      ascii;
    class       volScalarField;
    location    "0/vegetation";
    object      facesAgglomeration;
}
// * * * * * * * * * * * * * * * * * * * * * * * * * * * * * * * * * * * * * //

dimensions      [0 0 0 0 0 0 0];

internalField   uniform 0;

boundaryField
{
    left
    {
        type            calculated;
        value           nonuniform List<scalar> 0();
    }
    right
    {
        type            calculated;
        value           nonuniform List<scalar> 0();
    }
    back
    {
        type            calculated;
        value           nonuniform List<scalar> 0();
    }
    front
    {
        type            calculated;
        value           nonuniform List<scalar> 0();
    }
    bottom
    {
        type            calculated;
        value           nonuniform List<scalar> 
210
(
73
74
75
76
77
78
74
77
79
80
81
80
82
83
84
85
85
86
85
87
88
89
73
90
90
91
92
92
74
93
94
95
75
94
93
96
86
97
98
97
99
94
100
73
89
89
78
94
75
74
89
90
99
80
101
102
96
96
100
103
78
103
78
104
102
103
97
86
86
76
76
76
77
105
105
106
73
77
90
90
79
104
90
80
82
95
95
75
107
107
84
84
84
105
105
85
88
88
88
91
91
91
94
95
108
107
107
94
96
96
96
97
104
104
98
98
98
95
101
99
94
101
95
102
101
100
99
90
90
100
103
102
74
92
92
74
74
74
81
81
81
109
109
109
76
77
77
109
79
110
110
83
83
83
82
111
111
87
87
87
112
112
112
113
113
113
91
114
114
93
115
115
93
115
115
116
116
116
117
117
106
106
106
79
110
110
118
118
118
82
111
111
105
105
116
117
117
112
88
88
113
114
114
114
107
107
118
108
108
108
)
;
    }
    top
    {
        type            calculated;
        value           nonuniform List<scalar> 0();
    }
    tower
    {
        type            calculated;
        value           nonuniform List<scalar> 
283
(
119
120
121
122
123
124
125
126
127
128
129
130
131
132
133
134
135
136
137
138
139
140
141
142
143
144
145
146
147
148
149
150
151
152
153
154
155
156
157
158
159
160
161
162
163
164
165
166
167
168
169
170
171
172
173
174
175
176
177
178
179
180
181
182
183
184
185
186
187
188
189
190
191
192
193
194
195
196
197
198
199
200
201
202
203
204
205
206
207
208
209
210
211
212
213
214
215
216
217
218
219
220
221
222
223
224
225
226
227
228
229
230
231
232
233
234
235
236
237
238
239
240
241
242
243
244
245
246
247
248
249
250
251
252
253
254
255
256
257
258
259
260
261
262
263
264
265
266
267
268
269
270
271
272
273
274
275
276
277
278
279
280
281
282
283
284
285
286
287
288
289
290
291
292
293
294
295
296
297
298
299
300
301
302
303
304
305
306
307
308
309
310
311
312
313
314
315
316
317
318
319
320
321
322
323
324
325
326
327
328
329
330
331
332
333
334
335
336
337
338
339
340
341
342
343
344
345
346
347
348
349
350
351
352
353
354
355
356
357
358
359
360
361
362
363
364
365
366
367
368
369
370
371
372
373
374
375
376
377
378
379
380
381
382
383
384
385
386
387
388
389
390
391
392
393
394
395
396
397
398
399
400
401
)
;
    }
    air_to_vegetation
    {
        type            calculated;
        value           nonuniform List<scalar> 
179
(
402
403
404
402
402
402
405
406
407
408
409
410
408
409
410
404
403
403
403
407
411
410
410
411
412
413
413
413
413
412
414
414
414
414
414
415
405
411
404
404
403
404
415
414
402
402
402
402
404
416
416
416
406
406
407
407
407
409
409
417
409
408
408
409
408
410
408
408
408
410
409
408
409
408
409
403
404
403
404
412
415
403
403
407
407
407
417
411
411
410
417
417
410
411
417
411
417
411
413
413
405
405
413
408
408
416
417
416
404
415
405
416
408
404
415
414
414
412
412
406
418
418
418
418
412
412
415
412
404
412
415
404
416
405
406
406
406
406
406
418
406
409
409
413
409
409
410
410
415
404
415
415
404
415
403
405
417
417
411
406
418
418
418
418
409
406
406
406
406
405
405
405
405
413
413
413
416
416
417
)
;
    }
    procBoundary2to1
    {
        type            processor;
        value           nonuniform List<scalar> 
41
(
419
420
421
422
423
424
425
426
427
428
429
430
431
432
433
434
435
436
437
438
439
440
441
442
443
444
445
446
447
448
449
450
451
452
453
454
455
456
457
458
459
)
;
    }
    procBoundary2to3
    {
        type            processor;
        value           nonuniform List<scalar> 
55
(
460
461
462
463
464
465
466
467
468
469
470
471
472
473
474
475
476
477
478
479
480
481
482
483
484
485
486
487
488
489
490
491
492
493
494
495
496
497
498
499
500
501
502
503
504
505
506
507
508
509
510
511
512
513
514
)
;
    }
    procBoundary2to4
    {
        type            processor;
        value           nonuniform List<scalar> 
201
(
515
516
517
518
519
520
521
522
523
524
525
526
527
528
529
530
531
532
533
534
535
536
537
538
539
540
541
542
543
544
545
546
547
548
549
550
551
552
553
554
555
556
557
558
559
560
561
562
563
564
565
566
567
568
569
570
571
572
573
574
575
576
577
578
579
580
581
582
583
584
585
586
587
588
589
590
591
592
593
594
595
596
597
598
599
600
601
602
603
604
605
606
607
608
609
610
611
612
613
614
615
616
617
618
619
620
621
622
623
624
625
626
627
628
629
630
631
632
633
634
635
636
637
638
639
640
641
642
643
644
645
646
647
648
649
650
651
652
653
654
655
656
657
658
659
660
661
662
663
664
665
666
667
668
669
670
671
672
673
674
675
676
677
678
679
680
681
682
683
684
685
686
687
688
689
690
691
692
693
694
695
696
697
698
699
700
701
702
703
704
705
706
707
708
709
710
711
712
713
714
715
)
;
    }
    procBoundary2to6
    {
        type            processor;
        value           nonuniform List<scalar> 
31
(
716
717
718
719
720
721
722
723
724
725
726
727
728
729
730
731
732
733
734
735
736
737
738
739
740
741
742
743
744
745
746
)
;
    }
    procBoundary2to9
    {
        type            processor;
        value           nonuniform List<scalar> 
197
(
747
748
749
750
751
752
753
754
755
756
757
758
759
760
761
762
763
764
765
766
767
768
769
770
771
772
773
774
775
776
777
778
779
780
781
782
783
784
785
786
787
788
789
790
791
792
793
794
795
796
797
798
799
800
801
802
803
804
805
806
807
808
809
810
811
812
813
814
815
816
817
818
819
820
821
822
823
824
825
826
827
828
829
830
831
832
833
834
835
836
837
838
839
840
841
842
843
844
845
846
847
848
849
850
851
852
853
854
855
856
857
858
859
860
861
862
863
864
865
866
867
868
869
870
871
872
873
874
875
876
877
878
879
880
881
882
883
884
885
886
887
888
889
890
891
892
893
894
895
896
897
898
899
900
901
902
903
904
905
906
907
908
909
910
911
912
913
914
915
916
917
918
919
920
921
922
923
924
925
926
927
928
929
930
931
932
933
934
935
936
937
938
939
940
941
942
943
)
;
    }
}


// ************************************************************************* //
