/*--------------------------------*- C++ -*----------------------------------*\
  =========                 |
  \\      /  F ield         | OpenFOAM: The Open Source CFD Toolbox
   \\    /   O peration     | Website:  https://openfoam.org
    \\  /    A nd           | Version:  8
     \\/     M anipulation  |
\*---------------------------------------------------------------------------*/
/*   Windows 32 and 64 bit porting by blueCAPE: http://www.bluecape.com.pt   *\
|  Based on Windows porting (2.0.x v4) by Symscape: http://www.symscape.com   |
\*---------------------------------------------------------------------------*/
FoamFile
{
    version     2.0;
    format      ascii;
    class       volScalarField;
    location    "0/vegetation";
    object      viewFactorField;
}
// * * * * * * * * * * * * * * * * * * * * * * * * * * * * * * * * * * * * * //

dimensions      [0 0 0 0 0 0 0];

internalField   uniform 0;

boundaryField
{
    left
    {
        type            calculated;
        value           nonuniform List<scalar> 0();
    }
    right
    {
        type            calculated;
        value           nonuniform List<scalar> 0();
    }
    back
    {
        type            calculated;
        value           nonuniform List<scalar> 0();
    }
    front
    {
        type            calculated;
        value           nonuniform List<scalar> 0();
    }
    bottom
    {
        type            calculated;
        value           nonuniform List<scalar> 
210
(
1.0798866
1.0286955
1.0162036
0.94791768
0.89865395
0.90680398
1.0286955
0.89865395
0.91241037
0.64139593
1.0051504
0.64139593
0.93899021
1.105477
0.95030109
0.85000981
0.85000981
1.0465497
0.85000981
1.0196346
0.93656137
1.0038339
1.0798866
0.91391157
0.91391157
0.93880559
1.0382206
1.0382206
1.0286955
1.0157807
0.9304035
0.87645465
1.0162036
0.9304035
1.0157807
1.0036442
1.0465497
0.82738248
0.73660915
0.82738248
0.7952331
0.9304035
0.88174064
1.0798866
1.0038339
1.0038339
0.90680398
0.9304035
1.0162036
1.0286955
1.0038339
0.91391157
0.7952331
0.64139593
0.77969327
0.80845597
1.0036442
1.0036442
0.88174064
0.88164349
0.90680398
0.88164349
0.90680398
0.99311103
0.80845597
0.88164349
0.82738248
1.0465497
1.0465497
0.94791768
0.94791768
0.94791768
0.89865395
1.0029144
1.0029144
0.98250557
1.0798866
0.89865395
0.91391157
0.91391157
0.91241037
0.99311103
0.91391157
0.64139593
0.93899021
0.87645465
0.87645465
1.0162036
1.0945377
1.0945377
0.95030109
0.95030109
0.95030109
1.0029144
1.0029144
0.85000981
0.93656137
0.93656137
0.93656137
0.93880559
0.93880559
0.93880559
0.9304035
0.87645465
1.0482958
1.0945377
1.0945377
0.9304035
1.0036442
1.0036442
1.0036442
0.82738248
0.99311103
0.99311103
0.73660915
0.73660915
0.73660915
0.87645465
0.77969327
0.7952331
0.9304035
0.77969327
0.87645465
0.80845597
0.77969327
0.88174064
0.7952331
0.91391157
0.91391157
0.88174064
0.88164349
0.80845597
1.0286955
1.0382206
1.0382206
1.0286955
1.0286955
1.0286955
1.0051504
1.0051504
1.0051504
1.0288473
1.0288473
1.0288473
0.94791768
0.89865395
0.89865395
1.0288473
0.91241037
1.0482639
1.0482639
1.105477
1.105477
1.105477
0.93899021
1.0305981
1.0305981
1.0196346
1.0196346
1.0196346
1.0619619
1.0619619
1.0619619
1.0277778
1.0277778
1.0277778
0.93880559
1.0136541
1.0136541
1.0157807
1.0978132
1.0978132
1.0157807
1.0978132
1.0978132
1.0223182
1.0223182
1.0223182
1.0493317
1.0493317
0.98250557
0.98250557
0.98250557
0.91241037
1.0482639
1.0482639
1.1538031
1.1538031
1.1538031
0.93899021
1.0305981
1.0305981
1.0029144
1.0029144
1.0223182
1.0493317
1.0493317
1.0619619
0.93656137
0.93656137
1.0277778
1.0136541
1.0136541
1.0136541
1.0945377
1.0945377
1.1538031
1.0482958
1.0482958
1.0482958
)
;
    }
    top
    {
        type            calculated;
        value           nonuniform List<scalar> 0();
    }
    tower
    {
        type            calculated;
        value           nonuniform List<scalar> 
283
(
0.91197713
1.060572
0.9230921
1.029795
0.89084116
1.0689209
0.94095909
1.0404351
0.95448655
0.96402063
0.96581473
0.84470845
1.0667322
0.95353692
1.0153569
0.92665563
0.93377811
0.84687899
0.95241904
0.93281731
1.0619391
0.89981821
0.9507739
1.0572566
0.88499534
0.93904837
1.0795079
0.98090866
0.88430573
1.0459252
0.94304245
0.97102794
0.96761816
0.97954696
0.95374726
1.0827995
0.93719653
0.84981961
1.0652522
0.91692091
0.84173249
0.96128844
0.95322419
0.91814166
0.88363771
0.91867726
0.93856188
0.89633892
0.97974083
0.8461961
0.96633168
0.98967799
0.95975048
0.99276478
0.90457835
0.87779616
0.91960224
0.95018118
0.95830978
0.93618817
0.95344014
0.94723221
0.9383009
0.94769802
0.95274281
0.91705834
0.93738202
0.94479456
0.9364288
0.96612978
0.92198944
0.86944905
0.92807249
0.94576177
0.98769163
0.94845745
0.90993544
0.9441427
0.89754572
0.94827229
0.87548917
0.81402257
0.86733484
0.89474971
0.84579357
0.87214131
0.97785425
0.89066405
0.96045796
0.94077655
0.94402419
0.94557842
0.9264079
0.92608188
0.92486385
0.92110937
0.92826356
0.97113972
0.9272083
0.94782238
0.92376466
0.9348709
0.94020521
0.89220536
0.92554994
0.86578744
0.84222003
0.87371048
0.84115563
0.94959193
0.96325377
0.95729254
0.95844589
0.9606473
0.96096586
0.95069959
0.92728881
0.93696181
0.9426209
0.94421111
0.94101618
0.91311353
0.91263331
0.90292501
0.8346565
0.86248392
0.88013316
0.92424641
0.8834852
0.92914559
0.93533108
0.92959177
0.92176692
0.92020316
0.91573998
0.94058017
0.91759573
0.90529489
0.91916111
0.90127736
0.89880847
0.90640867
0.84133904
0.85266998
0.86163955
0.97238618
0.97055845
0.99403142
0.95633072
0.96644546
0.95166045
0.9325448
0.92084468
0.96367091
0.9804159
0.96491843
0.91867249
0.89117818
0.9452311
0.86539496
0.92083106
0.86856179
0.95934884
0.93433523
0.96529413
0.97148825
0.89912585
0.96504461
0.94850114
0.94672228
0.90530308
0.89473995
0.89933703
0.96202933
0.94302778
0.95032704
0.95431876
0.96981824
0.96505185
0.87989914
0.88230526
0.90544687
0.91499414
0.94189419
0.93660631
0.8926258
1.0952812
0.9026058
0.98661015
1.0112913
0.93914715
0.92300369
1.1129387
0.9820443
0.88337825
1.0567034
0.8802312
0.97188055
1.0845073
0.95026141
0.95446746
0.9488772
0.95319059
0.86439911
1.0084121
0.85669543
0.90494803
0.9413431
0.94569153
1.0769194
0.91272447
0.92113903
0.95333111
0.9420468
0.93889852
1.0402017
0.91250486
0.90899974
1.0881415
0.91517408
0.95543276
1.0537873
0.91122807
0.90462357
0.95689583
0.94772267
0.94936079
1.0837805
0.93795806
0.94447446
0.96220471
0.94914595
0.9568219
1.0594011
0.92325583
0.88716455
0.95151372
0.96759527
0.96713324
0.96476062
0.94136234
0.9550017
0.95368037
0.95133869
0.9566869
0.95477749
0.94439188
0.95725591
0.95941281
0.98871085
0.96226155
0.97269186
0.9681393
0.97210445
0.89380959
0.91649012
0.91564849
0.93268542
0.94683579
0.94499945
0.9873717
0.94862303
0.97002287
0.87245721
0.91109907
0.88192803
0.91226989
0.93331836
0.91071118
0.94675138
0.93040885
0.94429939
0.95155542
0.9350119
0.94762184
0.86529082
0.92017776
0.88398103
0.97806555
0.92396712
0.96902417
0.94889969
0.96820301
)
;
    }
    air_to_vegetation
    {
        type            calculated;
        value           nonuniform List<scalar> 
179
(
0.99353379
1.0114343
1.0521878
0.99353379
0.99353379
0.99353379
1.0086771
1.0313064
1.0699382
1.0586875
0.98369388
1.0863864
1.0586875
0.98369388
1.0863864
1.0521878
1.0114343
1.0114343
1.0114343
1.0699382
0.9129656
1.0863864
1.0863864
0.9129656
1.0310717
0.82681558
0.82681558
0.82681558
0.82681558
1.0310717
1.045294
1.045294
1.045294
1.045294
1.045294
1.0734738
1.0086771
0.9129656
1.0521878
1.0521878
1.0114343
1.0521878
1.0734738
1.045294
0.99353379
0.99353379
0.99353379
0.99353379
1.0521878
1.0028558
1.0028558
1.0028558
1.0313064
1.0313064
1.0699382
1.0699382
1.0699382
0.98369388
0.98369388
1.1938682
0.98369388
1.0586875
1.0586875
0.98369388
1.0586875
1.0863864
1.0586875
1.0586875
1.0586875
1.0863864
0.98369388
1.0586875
0.98369388
1.0586875
0.98369388
1.0114343
1.0521878
1.0114343
1.0521878
1.0310717
1.0734738
1.0114343
1.0114343
1.0699382
1.0699382
1.0699382
1.1938682
0.9129656
0.9129656
1.0863864
1.1938682
1.1938682
1.0863864
0.9129656
1.1938682
0.9129656
1.1938682
0.9129656
0.82681558
0.82681558
1.0086771
1.0086771
0.82681558
1.0586875
1.0586875
1.0028558
1.1938682
1.0028558
1.0521878
1.0734738
1.0086771
1.0028558
1.0586875
1.0521878
1.0734738
1.045294
1.045294
1.0310717
1.0310717
1.0313064
0.93974663
0.93974663
0.93974663
0.93974663
1.0310717
1.0310717
1.0734738
1.0310717
1.0521878
1.0310717
1.0734738
1.0521878
1.0028558
1.0086771
1.0313064
1.0313064
1.0313064
1.0313064
1.0313064
0.93974663
1.0313064
0.98369388
0.98369388
0.82681558
0.98369388
0.98369388
1.0863864
1.0863864
1.0734738
1.0521878
1.0734738
1.0734738
1.0521878
1.0734738
1.0114343
1.0086771
1.1938682
1.1938682
0.9129656
1.0313064
0.93974663
0.93974663
0.93974663
0.93974663
0.98369388
1.0313064
1.0313064
1.0313064
1.0313064
1.0086771
1.0086771
1.0086771
1.0086771
0.82681558
0.82681558
0.82681558
1.0028558
1.0028558
1.1938682
)
;
    }
    procBoundary2to1
    {
        type            processor;
        value           uniform 0;
    }
    procBoundary2to3
    {
        type            processor;
        value           uniform 0;
    }
    procBoundary2to4
    {
        type            processor;
        value           uniform 0;
    }
    procBoundary2to6
    {
        type            processor;
        value           uniform 0;
    }
    procBoundary2to9
    {
        type            processor;
        value           uniform 0;
    }
}


// ************************************************************************* //
