/*--------------------------------*- C++ -*----------------------------------*\
  =========                 |
  \\      /  F ield         | OpenFOAM: The Open Source CFD Toolbox
   \\    /   O peration     | Website:  https://openfoam.org
    \\  /    A nd           | Version:  8
     \\/     M anipulation  |
\*---------------------------------------------------------------------------*/
/*   Windows 32 and 64 bit porting by blueCAPE: http://www.bluecape.com.pt   *\
|  Based on Windows porting (2.0.x v4) by Symscape: http://www.symscape.com   |
\*---------------------------------------------------------------------------*/
FoamFile
{
    version     2.0;
    format      ascii;
    class       volScalarField;
    location    "0/vegetation";
    object      viewFactorField;
}
// * * * * * * * * * * * * * * * * * * * * * * * * * * * * * * * * * * * * * //

dimensions      [0 0 0 0 0 0 0];

internalField   uniform 0;

boundaryField
{
    left
    {
        type            calculated;
        value           nonuniform List<scalar> 0();
    }
    right
    {
        type            calculated;
        value           nonuniform List<scalar> 0();
    }
    back
    {
        type            calculated;
        value           nonuniform List<scalar> 0();
    }
    front
    {
        type            calculated;
        value           nonuniform List<scalar> 0();
    }
    bottom
    {
        type            calculated;
        value           nonuniform List<scalar> 
353
(
0.79449858
0.71181504
0.77191028
0.93117164
0.7849918
0.71181504
0.7849918
0.93117164
0.61688883
0.80142492
0.73616794
0.81901736
0.80142492
0.61688883
0.92423948
0.8280962
0.73616794
0.8280962
0.85134451
0.81901736
0.95728665
0.95728665
0.79516758
0.82801679
0.82801679
0.83266753
0.83266753
0.77148807
0.76412972
0.76909483
0.81375872
0.76909483
0.76909483
0.76412972
0.8559367
1.0495286
0.84731963
1.0495286
0.8559367
0.79148436
0.88842531
0.83266753
0.84731963
0.88842531
0.79148436
0.79159228
0.98588243
0.81375872
0.98588243
0.75433547
0.29177737
0.30230059
0.9225292
0.81375872
0.81375872
0.48917856
0.83916903
1.0495286
0.82811562
0.43360985
0.83678862
0.29177737
0.82811562
0.42413317
0.30230059
0.83678862
1.1431553
0.52785965
0.48917856
0.59798039
0.76909483
0.84731963
1.0495286
0.83916903
0.61539459
0.61539459
0.71181504
0.81375872
0.80066044
0.59867996
0.56742525
0.48917856
0.9225292
1.0217352
0.92935191
0.82801679
0.82801679
0.61688883
0.59798039
0.59798039
0.61688883
0.92423948
0.92423948
0.92423948
0.77191028
0.77191028
0.84731963
0.78964052
0.45387907
0.61539459
0.61539459
0.83916903
0.83916903
0.83916903
0.29802115
0.69601722
0.70735594
0.77247732
0.60845919
0.29802115
0.29802115
0.56742525
0.29802115
0.2851955
0.48917856
0.9542757
0.91346371
0.83678862
0.2851955
0.89062134
1.0115342
0.6826601
0.7966772
0.2851955
0.59798039
0.59798039
0.59798039
0.83916903
0.83916903
0.83916903
0.70735594
0.69601722
0.7849918
0.7849918
0.91346371
0.6826601
0.29177737
0.68819631
0.929827
0.929827
0.30230059
0.9225292
0.43360985
0.43360985
0.43360985
0.83678862
0.60845919
0.77247732
0.29177737
0.29177737
0.82811562
0.27554112
0.65315233
0.42413317
0.42413317
0.42413317
0.30230059
1.1431553
1.1431553
1.1431553
1.1431553
0.80066044
0.77247732
0.27554112
0.56742525
0.34083359
0.45387907
0.45387907
0.45387907
0.34083359
0.97664851
0.88386198
0.87116722
0.929827
0.929827
0.43676406
0.65315233
0.65315233
0.43676406
0.43676406
0.43676406
0.29177737
0.56742525
0.27554112
0.82811562
0.27554112
0.27554112
0.65315233
0.27554112
0.29802115
0.30826974
0.30826974
0.34083359
0.30826974
0.48917856
0.30826974
0.34083359
0.48373647
1.1431553
0.2851955
0.89062134
0.89062134
0.89062134
0.48373647
0.48373647
0.48373647
0.9225292
0.88386198
0.93117164
1.0217352
1.0217352
1.0217352
0.92935191
0.88386198
0.92935191
0.91077087
0.91077087
0.79449858
0.79449858
0.79449858
0.83266753
0.77191028
0.77191028
0.71181504
0.45387907
0.93117164
0.88386198
0.92935191
0.61688883
0.61688883
0.61688883
0.79516758
0.79516758
0.80142492
0.73616794
0.77148807
0.77148807
0.75158327
0.75158327
0.81901736
0.80142492
0.79345993
0.79345993
0.82549566
0.82549566
0.8280962
0.79766769
0.79766769
0.73616794
0.8280962
0.88842531
0.88842531
0.85134451
0.85134451
0.85134451
0.81901736
0.98588243
0.75433547
0.79516758
0.79516758
0.79516758
0.77148807
0.77148807
0.77148807
0.76412972
0.75158327
0.75158327
0.79345993
0.79345993
0.76412972
0.8559367
0.82549566
0.82549566
0.8559367
0.8559367
0.8559367
0.79148436
0.79766769
0.79766769
0.88842531
0.88842531
0.79148436
0.79159228
0.79159228
0.79159228
0.75433547
0.98588243
0.75433547
0.76617048
0.76617048
0.76617048
0.52785965
0.52785965
0.52785965
0.77247732
0.80066044
0.80066044
0.68819631
0.68819631
0.59867996
0.95728665
0.78964052
0.87116722
0.87116722
0.87116722
0.78964052
0.69601722
0.70735594
0.69601722
0.76617048
0.70735594
0.70735594
0.60845919
0.60845919
0.59867996
0.60845919
0.60845919
0.60845919
0.9542757
0.9542757
0.9542757
0.91346371
0.9542757
0.9542757
1.0115342
1.0115342
1.0115342
0.6826601
0.6826601
0.6826601
0.7966772
0.7966772
0.7966772
0.6826601
0.6826601
0.91346371
0.78964052
0.80066044
0.80066044
0.59867996
0.68819631
0.77247732
0.97664851
0.97664851
0.97664851
0.87116722
0.87116722
0.87116722
0.91077087
0.91077087
0.91077087
0.95728665
0.95728665
)
;
    }
    top
    {
        type            calculated;
        value           uniform 1.0247694;
    }
    tower
    {
        type            calculated;
        value           nonuniform List<scalar> 
275
(
0.86888917
0.93887607
0.85168639
0.81725462
0.80412884
0.82845174
0.87207673
0.96601003
0.87758061
0.9000396
0.81364059
0.82475054
0.84044486
0.85459999
0.91454105
0.93940607
0.924626
1.0137568
1.0076079
0.99004096
1.0326084
0.96265812
0.9437357
0.94968954
0.84697429
0.82209147
0.83313315
0.83859493
0.79716586
0.8323017
0.91900868
0.90586754
0.9320016
0.81088702
0.87068644
0.89079553
0.94762496
0.94078597
0.9075197
0.80564228
0.82556968
0.80534545
0.87421123
0.82895483
0.85879664
0.94916669
0.94807458
0.95774277
0.81075284
0.83221506
0.84766657
0.83558058
0.79172287
0.81477988
0.91496024
0.94976142
0.94132933
0.9592867
0.93588206
0.93702564
0.87036915
0.90424431
0.9079152
0.91461429
0.91661877
0.89696616
0.84627159
0.83443678
0.84714513
0.86470391
0.84716746
0.874391
0.99323066
1.036305
0.96056279
0.95080344
0.94849599
0.95974393
0.86988735
0.82256032
0.83394675
0.85225134
0.85196878
0.83706798
0.80802481
0.81272811
0.9203754
0.9479451
0.95131622
0.94280513
0.93665652
0.95039364
0.8034168
0.90587411
0.92913536
0.90912906
0.97111826
0.91584704
0.91740108
0.89774255
0.80977261
0.81947364
0.83427297
0.8481193
0.87413939
0.85860851
0.84817341
0.86179144
0.90585286
0.98106653
0.90104909
0.84550954
0.98100252
0.92782927
0.93512735
0.88053071
0.94923603
0.97024828
0.86754143
0.92669011
1.0361478
0.97350734
1.0538311
0.97095882
0.95626598
0.95603106
0.95860598
0.83752204
0.9318884
0.92748286
0.94520133
0.87329265
0.84954206
0.86097939
0.83415577
0.81303505
0.8387849
0.88148113
0.83740216
0.91630513
0.97995197
1.0028236
0.95201055
1.0169856
0.97330233
0.90365409
0.88498703
0.95518904
0.97471177
0.90324504
0.88970859
0.91543147
0.95863779
0.95162717
0.9719821
0.94843309
0.85665749
0.96319035
0.9403696
0.8975737
0.94777035
0.86925127
0.83408537
0.93410799
0.93371318
0.88569083
0.86809152
0.95306528
0.8525767
0.90051399
0.94724685
0.9923231
1.0212209
0.92815086
0.87833513
0.87312622
1.0004402
0.95345655
0.98677893
0.9412488
0.938898
0.91267445
0.95606476
0.95241258
0.90616295
0.97058239
0.9882308
0.96841532
0.90774446
0.96058788
0.9445881
1.017937
1.0568369
1.0107796
0.99811796
0.9306318
1.0095829
0.99809165
1.0241788
1.0618975
0.98370072
0.91769263
1.0009084
1.0111411
0.96168608
1.0080728
0.97645652
0.87042866
0.84937617
0.84370875
0.98493307
1.0156301
0.97371566
0.97286723
0.95989875
0.92830994
0.8700474
0.89710449
0.89351187
0.89476296
0.91400427
0.8931555
0.9107773
0.91422336
0.91409203
0.88737156
0.91061593
0.92058485
0.90096202
0.8751899
0.89628511
0.88300403
0.87911098
0.94435646
0.9486509
1.0261312
0.91756542
0.94961856
0.88984137
1.0288876
0.9895019
0.89450902
0.85298806
1.0448953
0.99914525
1.0231386
1.0178962
0.95989895
1.0396744
0.99960509
0.96200156
0.97343423
0.83342517
0.80966283
0.86055454
0.83795126
0.93751949
0.96102291
0.98644422
0.95634347
0.84354202
0.90899527
0.90819544
0.89900992
0.82131876
0.85144419
0.85174958
0.86105364
1.0039585
0.94679579
0.95473157
0.94112814
0.95785045
0.9284149
0.83461301
)
;
    }
    air_to_vegetation
    {
        type            calculated;
        value           nonuniform List<scalar> 
752
(
0.94646315
0.94646315
1.021768
0.94646315
0.89374017
0.89317963
1.021768
1.021768
1.0502325
1.0091976
0.89374017
0.9836942
1.070432
1.0905156
0.99301506
0.89374017
1.070432
1.0905156
1.0502325
0.96622215
0.9836942
1.0502325
1.0502325
0.97613533
0.97613533
0.89374017
0.89374017
0.89374017
1.0905156
1.0905156
1.0905156
0.87012557
0.87012557
1.0905156
1.0905156
0.93815132
1.0905156
1.0905156
1.0905156
0.89317963
0.89317963
0.87012557
1.0502325
0.87012557
0.87012557
0.87012557
0.87012557
0.89317963
0.89317963
0.97613533
0.97613533
0.97613533
0.99301506
0.99301506
0.89374017
0.96429289
0.96429289
0.96429289
1.021768
0.9836942
0.89374017
0.89374017
1.021768
0.99301506
0.94646315
0.94646315
0.94646315
0.94646315
0.94646315
0.94646315
0.94646315
1.0502325
1.0502325
1.0502325
1.0502325
1.0502325
1.0502325
1.0091976
1.0905156
1.0091976
1.0091976
0.97613533
0.89374017
0.89374017
0.89374017
0.97613533
0.97613533
0.89374017
0.97613533
0.9836942
0.94646315
0.94646315
0.89317963
0.89317963
0.93815132
1.021768
1.021768
1.0905156
1.0905156
0.97613533
0.96622215
1.0502325
1.0502325
0.89317963
0.89317963
0.93815132
0.89317963
0.89317963
0.89317963
0.89374017
1.021768
1.021768
1.021768
1.021768
0.94646315
1.070432
1.070432
1.070432
1.070432
1.070432
0.96622215
0.96622215
1.070432
1.070432
1.0905156
1.0905156
1.0502325
0.89317963
0.89317963
0.99301506
0.99301506
1.021768
0.89374017
0.89374017
0.89374017
0.89374017
1.070432
1.070432
1.070432
1.070432
0.9836942
1.070432
1.070432
1.021768
1.021768
1.021768
1.0091976
0.97613533
0.97613533
0.97613533
0.97613533
0.97613533
0.97613533
0.97613533
1.070432
1.070432
1.070432
1.070432
0.96622215
0.96622215
0.96622215
0.96622215
0.96622215
0.97613533
0.96622215
0.96622215
0.96622215
0.96622215
0.96622215
1.0905156
1.0905156
1.0905156
0.87012557
1.0905156
1.0905156
1.0905156
1.0905156
0.87012557
0.87012557
0.87012557
1.0091976
0.87012557
1.0905156
1.0905156
1.0905156
1.0905156
0.93815132
0.93815132
1.0905156
1.0905156
1.0905156
0.93815132
0.93815132
0.93815132
0.93815132
1.0905156
1.0905156
1.0905156
1.0905156
1.0502325
1.0502325
0.89317963
1.0502325
0.89317963
0.89317963
0.89317963
0.93815132
0.93815132
0.93815132
0.93815132
0.87012557
0.87012557
0.87012557
0.89317963
0.89317963
0.89317963
0.89317963
0.89317963
0.89317963
0.87012557
0.87012557
0.87012557
0.87012557
0.87012557
0.87012557
0.93815132
0.89317963
0.89317963
0.89317963
0.89317963
0.89317963
0.94646315
0.94646315
0.97613533
0.94646315
0.97613533
0.97613533
0.97613533
0.97613533
0.97613533
0.97613533
0.97613533
0.97613533
0.99301506
0.99301506
0.99301506
0.99301506
0.99301506
0.99301506
0.99301506
0.97613533
1.0033948
0.97613533
0.89374017
0.89374017
0.89374017
0.89374017
0.89374017
0.96429289
0.96429289
0.96429289
0.96429289
0.96429289
0.96429289
0.96429289
0.96429289
0.96429289
0.96429289
0.96429289
0.96429289
0.96429289
0.96429289
0.96429289
0.97613533
0.9836942
1.021768
0.9836942
0.9836942
0.9836942
0.89374017
0.89374017
0.89374017
0.9836942
0.9836942
0.9836942
1.021768
1.0033948
1.021768
1.021768
1.021768
1.021768
1.0905156
0.99301506
0.94646315
0.94646315
0.99301506
0.99301506
0.99301506
0.94646315
0.94646315
0.94646315
0.94646315
0.94646315
0.94646315
1.070432
0.94646315
0.94646315
0.94646315
0.94646315
0.94646315
0.94646315
0.94646315
0.94646315
0.94646315
0.94646315
0.94646315
0.94646315
0.9836942
0.93815132
0.93815132
0.93815132
0.93815132
0.93815132
0.93815132
1.0033948
1.021768
1.021768
1.021768
0.93815132
0.93815132
0.93815132
1.021768
0.94646315
0.89374017
1.0905156
1.0905156
0.96622215
1.0091976
1.0502325
1.0502325
1.070432
1.0905156
0.94646315
0.94646315
1.0502325
1.0502325
1.0502325
1.0502325
0.89374017
0.89374017
0.89374017
0.9836942
1.070432
0.96622215
0.97613533
1.0502325
1.0091976
1.0091976
1.0091976
1.0091976
1.0091976
1.0905156
1.0905156
1.0091976
1.0091976
1.0091976
0.96622215
0.89374017
0.96622215
0.97613533
0.97613533
0.97613533
0.97613533
0.9836942
0.9836942
1.070432
1.021768
1.021768
1.021768
1.0033948
1.0905156
1.070432
0.93815132
0.93815132
0.87012557
1.0905156
0.93815132
0.93815132
1.0502325
0.93815132
0.87012557
0.97613533
0.97613533
0.97613533
0.99301506
0.99301506
0.99301506
1.0033948
0.99301506
0.97613533
0.96429289
0.99301506
0.99301506
0.89374017
1.0033948
0.96429289
1.0033948
0.99301506
0.97613533
0.9836942
0.9836942
0.9836942
1.021768
0.9836942
1.021768
1.0033948
1.0033948
0.97613533
1.0502325
1.0502325
1.0502325
1.0502325
1.0502325
1.0502325
1.0502325
1.0502325
1.0502325
1.0091976
1.0091976
1.0502325
1.0502325
1.0905156
1.0905156
1.0905156
1.0905156
1.0905156
1.0091976
1.0091976
1.0905156
1.0091976
1.0905156
1.0091976
1.0091976
0.96622215
0.96622215
0.96622215
0.96622215
0.89374017
0.89374017
0.9836942
0.89374017
0.89374017
0.97613533
0.97613533
0.97613533
0.9836942
0.9836942
0.97613533
0.89374017
1.0091976
1.0091976
1.0091976
0.97613533
0.97613533
0.9836942
0.9836942
1.021768
1.021768
1.0091976
1.0091976
1.0091976
1.0091976
1.0091976
0.97613533
0.97613533
0.97613533
0.97613533
1.070432
0.97613533
1.070432
0.96622215
0.96622215
0.96622215
0.97613533
0.97613533
1.0905156
0.93815132
0.94646315
0.89374017
0.89374017
1.021768
0.94646315
0.99301506
0.94646315
0.94646315
0.94646315
0.94646315
0.94646315
1.070432
0.96622215
0.96622215
0.93815132
0.99301506
0.97613533
0.97613533
0.99301506
0.99301506
0.89374017
0.89374017
1.070432
1.070432
1.070432
1.0091976
1.0091976
1.070432
1.021768
1.0033948
1.021768
1.021768
1.021768
1.021768
1.021768
1.021768
1.021768
1.0905156
1.0905156
1.0905156
1.0905156
1.0091976
1.0905156
1.0905156
1.0091976
0.97613533
0.97613533
0.97613533
0.97613533
0.97613533
0.97613533
0.97613533
0.97613533
1.070432
1.070432
1.070432
1.070432
0.97613533
1.070432
1.070432
0.96622215
0.96622215
0.96622215
0.96622215
0.96622215
0.96622215
0.96622215
0.97613533
0.97613533
0.97613533
0.96622215
0.96622215
0.97613533
0.97613533
0.97613533
1.0905156
1.0905156
1.0905156
1.0905156
1.0905156
1.0905156
1.0905156
1.0905156
0.93815132
0.93815132
0.93815132
0.93815132
0.93815132
0.87012557
0.93815132
1.0905156
1.0905156
1.0905156
0.89317963
1.0502325
1.0502325
0.89317963
0.89317963
0.93815132
0.93815132
0.93815132
0.93815132
0.93815132
0.93815132
0.93815132
0.93815132
0.93815132
0.87012557
1.0091976
0.87012557
1.0502325
0.87012557
0.87012557
0.87012557
0.87012557
0.93815132
0.93815132
0.93815132
0.87012557
0.87012557
0.87012557
0.89317963
0.87012557
0.89317963
0.89317963
0.89317963
0.89317963
0.99301506
0.94646315
0.97613533
0.97613533
0.97613533
0.97613533
0.99301506
0.99301506
0.99301506
0.99301506
0.99301506
0.97613533
0.99301506
0.97613533
1.0033948
1.0033948
0.99301506
1.0033948
0.97613533
0.97613533
0.89374017
0.89374017
0.89374017
1.021768
1.0033948
1.0033948
0.96429289
1.0033948
1.0033948
0.96429289
1.0033948
0.96429289
0.96429289
0.96429289
0.96429289
1.0033948
1.0033948
1.0033948
0.96429289
1.0033948
0.96429289
0.96429289
0.96429289
0.96429289
0.96429289
0.96429289
0.97613533
0.9836942
1.021768
0.9836942
0.9836942
0.9836942
0.9836942
0.9836942
1.021768
1.021768
1.021768
1.021768
1.0033948
1.0033948
1.021768
1.0033948
1.021768
1.021768
0.97613533
1.021768
1.021768
1.021768
1.021768
0.89374017
1.021768
1.021768
1.0905156
1.0905156
1.0905156
1.0905156
0.94646315
0.94646315
0.99301506
0.94646315
0.94646315
0.94646315
0.99301506
0.99301506
0.99301506
0.99301506
1.070432
1.070432
1.070432
0.94646315
0.94646315
0.94646315
0.93815132
1.0905156
0.9836942
0.89374017
0.9836942
0.93815132
0.93815132
0.93815132
0.93815132
0.93815132
0.93815132
0.93815132
0.93815132
1.0033948
1.0033948
1.0033948
1.0033948
1.0033948
1.0033948
1.0033948
1.021768
1.021768
1.0033948
1.0033948
1.0033948
1.0033948
1.021768
1.021768
1.021768
0.99301506
0.94646315
0.99301506
0.99301506
0.93815132
0.93815132
0.89317963
0.93815132
0.89317963
0.93815132
1.021768
0.97613533
0.94646315
0.94646315
0.89374017
1.0502325
1.0502325
)
;
    }
    procBoundary9to2
    {
        type            processor;
        value           uniform 0;
    }
    procBoundary9to5
    {
        type            processor;
        value           uniform 0;
    }
    procBoundary9to6
    {
        type            processor;
        value           uniform 0;
    }
    procBoundary9to7
    {
        type            processor;
        value           uniform 0;
    }
    procBoundary9to8
    {
        type            processor;
        value           uniform 0;
    }
    procBoundary9to12
    {
        type            processor;
        value           uniform 0;
    }
}


// ************************************************************************* //
