/*--------------------------------*- C++ -*----------------------------------*\
  =========                 |
  \\      /  F ield         | OpenFOAM: The Open Source CFD Toolbox
   \\    /   O peration     | Website:  https://openfoam.org
    \\  /    A nd           | Version:  8
     \\/     M anipulation  |
\*---------------------------------------------------------------------------*/
/*   Windows 32 and 64 bit porting by blueCAPE: http://www.bluecape.com.pt   *\
|  Based on Windows porting (2.0.x v4) by Symscape: http://www.symscape.com   |
\*---------------------------------------------------------------------------*/
FoamFile
{
    version     2.0;
    format      ascii;
    class       volScalarField;
    location    "0/vegetation";
    object      viewFactorField;
}
// * * * * * * * * * * * * * * * * * * * * * * * * * * * * * * * * * * * * * //

dimensions      [0 0 0 0 0 0 0];

internalField   uniform 0;

boundaryField
{
    left
    {
        type            calculated;
        value           nonuniform List<scalar> 0();
    }
    right
    {
        type            calculated;
        value           nonuniform List<scalar> 0();
    }
    back
    {
        type            calculated;
        value           nonuniform List<scalar> 0();
    }
    front
    {
        type            calculated;
        value           nonuniform List<scalar> 0();
    }
    bottom
    {
        type            calculated;
        value           nonuniform List<scalar> 
299
(
1.0525179
1.0907428
1.1144228
1.2825862
1.2917955
1.2917955
1.2825862
1.1277087
1.1419626
1.1144228
1.3896279
1.2781466
1.2366813
1.1750243
1.1419626
1.1605546
0.95003886
1.20969
1.20969
1.20969
1.4147184
1.1277087
1.0907428
1.0907428
1.0907428
1.1144228
1.1144228
1.5168896
1.3510096
1.3510096
1.2917955
1.2825862
1.2825862
1.2825862
1.1277087
1.2781466
1.1645848
1.1419626
1.1419626
1.1750243
1.1605546
1.1144228
1.1144228
1.3896279
1.3896279
1.3896279
1.20969
1.1419626
1.1419626
1.4147184
1.1277087
1.3510096
1.3510096
1.2917955
1.1750243
1.1750243
1.1750243
1.2366813
1.2366813
1.2366813
1.0525179
1.0525179
1.0525179
1.4215825
1.4215825
1.4215825
1.4215825
1.3400403
0.95003886
1.4022722
1.4022722
1.4022722
1.5168896
1.5168896
1.3400403
1.5168896
1.5168896
1.3400403
1.5168896
1.5168896
1.3400403
1.52956
1.52956
1.4022722
1.1645848
1.379592
1.1645848
1.2781466
1.4770609
1.2781466
1.379592
1.379592
1.379592
1.4147184
1.4147184
1.1645848
1.1645848
1.4116281
1.4116281
1.4116281
1.52956
1.52956
1.4116281
1.4770609
1.4770609
1.4770609
1.1740859
1.1740859
1.1986728
1.1986728
1.1605546
1.1570954
1.1986728
1.1740859
1.1740859
0.95003886
0.95003886
1.250391
1.2270066
1.2270066
1.0107572
1.0236182
1.0236182
1.0236182
1.0355968
1.0506359
1.0749927
1.1346048
1.1563462
1.0506359
1.0355968
1.0677368
1.0749927
1.1377697
1.1563462
1.1346048
1.1713978
1.1605546
1.0506359
1.1570954
1.1377697
1.1911054
1.1911054
1.1800125
1.0821267
1.0821267
1.1570954
1.0821267
1.0355968
1.0506359
1.0236182
1.1545988
1.1713978
1.1800125
1.1545988
1.1620617
1.1346048
1.1377697
1.1377697
1.0821267
1.1911054
1.1986728
1.1570954
1.1377697
1.1800125
1.1911054
1.1545988
1.1800125
1.1377697
1.1713978
1.1346048
1.1713978
1.1548728
1.1548728
1.1548728
0.95003886
1.250391
1.250391
1.250391
1.2270066
1.2270066
1.1272188
1.1272188
1.1272188
1.128714
1.128714
1.128714
1.3127084
1.3127084
1.1548728
1.3127084
1.3127084
1.1872455
1.1872455
1.1872455
1.1872455
1.1545988
1.1927586
1.1927586
1.1620617
1.1620617
1.1620617
1.1927586
1.1927586
1.1927586
1.1346048
1.1346048
1.128714
0.9826918
0.9826918
1.000959
0.9830253
0.98681519
1.0001472
1.0677368
1.0799764
0.99756297
1.0749927
1.0520809
1.1099945
1.0768288
1.0520809
1.0989129
1.1563462
1.0805743
1.000959
0.99845279
0.9826918
0.9826918
0.9830253
0.9830253
0.98681519
0.98681519
1.000959
0.9830253
0.99756297
1.0799764
1.0001472
1.0001472
1.0001472
1.0677368
1.0749927
1.0677368
1.0799764
1.0768288
1.0799764
0.99002936
0.99002936
1.0805743
1.0805743
1.1563462
1.0520809
1.0520809
1.0805743
1.1099945
1.1099945
1.1099945
1.000959
1.0355968
1.0768288
1.0768288
1.0768288
1.0989129
1.149055
1.0520809
0.99002936
0.99002936
0.99756297
0.98681519
0.99756297
0.99756297
0.99845279
0.99845279
0.99845279
1.2068989
1.2068989
1.1272188
1.0485417
1.0485417
1.0485417
1.2068989
1.2068989
1.0485417
1.1455218
1.1455218
1.1455218
1.1099945
1.1099945
1.0989129
1.0989129
1.1455218
1.149055
1.149055
1.149055
1.0768288
1.0107572
1.0525179
1.0107572
1.0107572
)
;
    }
    top
    {
        type            calculated;
        value           nonuniform List<scalar> 0();
    }
    Building
    {
        type            calculated;
        value           nonuniform List<scalar> 
797
(
1.0799665
1.0784612
1.0770605
1.0790577
1.0841325
1.082392
1.0838803
1.0759192
1.083007
1.0808741
1.0789619
1.0812442
1.0749073
1.0780881
1.0778363
1.0839096
1.0842428
1.0820128
1.0811305
1.0820732
1.0769909
1.0747591
1.0842247
1.0817453
1.0231821
1.0529457
1.0841427
1.0857711
1.078123
1.0816006
1.0814777
0.82679059
0.99490126
1.0838552
1.0828665
1.083142
1.0706617
1.0749814
1.0830754
1.0795501
1.06652
1.0701694
1.0714696
1.0678273
1.0748975
1.0688923
1.0691319
1.0724709
1.0703963
1.0735666
1.0674945
1.073768
1.07376
1.0793007
1.0758793
1.0790707
1.0857451
1.0915332
1.0881963
1.0842837
1.0803105
1.0831355
1.0733402
1.0745692
1.0828022
1.0311845
1.0864283
1.0841808
1.0789332
1.0839085
1.065895
1.0677482
1.0692192
1.0692419
1.0721074
1.0706348
1.0886692
1.0854579
1.088691
1.0964065
1.0857763
1.0798506
1.0799778
1.0811017
1.0829966
1.0821349
1.0852484
1.0805803
1.0762591
1.0778695
1.0768847
1.0836409
1.0804163
1.0860475
1.0887479
1.0871571
1.0839971
1.0848019
1.0758803
1.082995
1.0773127
1.0990916
1.242202
1.0323217
1.0362814
1.0916437
1.0868637
1.0922325
1.0666702
1.0990175
1.0954391
1.1262929
1.0825111
1.0867051
1.090941
1.0909162
1.0900015
1.0868255
1.1006182
1.0863769
1.0820035
1.1033095
1.0772081
1.0663556
1.0713944
1.0678275
1.0713278
1.0706979
1.0719673
1.0749231
1.0665381
1.072515
1.0777095
1.0854693
1.0943753
1.0923454
1.0904269
1.0829718
1.0801268
1.0827022
1.0981797
1.0938165
1.0956425
1.1038079
1.1029432
1.1010983
1.0983735
1.0919848
1.0953146
1.0796021
1.0762653
1.0739858
1.0722031
1.0942189
1.0868504
1.1062117
1.0951952
1.091503
1.0946477
1.0986895
1.1126381
1.0877153
1.1024427
1.0633812
1.0536075
1.0473487
1.0557579
1.1162952
1.1257227
1.0638824
1.0477808
1.1087345
1.1027296
1.098943
1.0974788
1.0931235
1.0904627
1.1031965
1.1021887
1.1062638
1.120283
1.1081208
1.1134041
0.9958735
0.99783457
0.99610358
0.97458444
0.98952566
0.98636272
0.98529576
0.99513019
0.99531367
0.99567743
0.99567769
0.99421744
0.99398913
0.99505475
0.99494743
0.99476662
0.9951124
0.99527503
0.99528986
0.99510537
0.99493488
0.99514798
0.99475761
0.99493587
0.9958557
0.99603069
0.99564138
0.99561687
0.99546645
0.99561225
0.995814
0.99594268
0.99609264
0.99577854
0.99510299
0.99458793
0.99419408
0.99510725
0.99517134
0.99504711
0.99506404
0.99459697
0.99457942
0.99442277
1.0173598
1.0185151
0.69629614
0.99310942
0.9955334
0.99421192
0.96497793
0.98318807
0.99200739
0.98952093
0.99562593
0.99373297
0.99332426
0.99360413
0.99606519
0.99156888
0.98994157
0.99267466
0.99699952
0.99684803
0.99653306
0.99675555
0.9975678
0.99743134
0.99714713
0.997291
0.99693339
0.99672299
0.9968703
0.99683899
0.99636954
0.99620204
0.99647413
0.99657275
0.99663071
0.99641951
0.9963955
0.99610435
0.9961506
0.99626334
0.99526694
0.99510636
0.99510968
0.99526562
0.99478936
0.99494703
0.99496713
0.9948177
0.99507432
0.99502721
0.99501439
0.99463352
0.99502984
0.99502195
0.99468355
0.99559211
0.99558827
0.99556989
0.99556601
0.99600827
0.99574769
0.99571652
0.95205298
1.0839076
0.98276771
1.0315583
0.99396161
0.99374663
0.99416073
0.99330452
0.99452103
0.99350796
0.99421867
0.99671745
0.9968087
0.99679249
0.99665445
0.99651754
0.996436
0.99631473
0.99646523
0.99615077
0.99621609
0.99624701
0.99508288
0.99495955
0.9949259
0.99619081
0.99685224
0.99529348
0.996373
0.99523701
0.99515738
0.99503246
0.99490332
0.99488212
0.9948412
0.99467091
0.99503221
0.99453636
0.9946955
0.99453122
0.9944049
0.99545081
0.99511339
0.99646806
0.99463818
0.99641911
0.99625759
0.99692424
0.99644158
0.99468607
0.99518611
0.99495126
0.99475433
0.99463143
0.99544044
0.99463254
0.99750042
0.99729684
0.99736318
0.99743444
0.99470286
0.99509688
0.99623656
0.99637976
0.99597773
0.99604057
0.9957554
0.99547016
0.99519
0.99492411
0.99468814
0.99451151
0.99448912
0.995368
1.0371611
1.0371732
0.99616192
0.99456223
0.9945189
0.99424019
0.99534323
0.99595418
0.99616891
0.99606771
0.9960559
0.99583515
0.99581669
0.99571383
0.99593742
0.99603182
0.99554339
0.99666447
0.99675618
0.9967777
0.99558735
0.99624759
0.99626631
0.99615367
0.99636
0.99588629
0.99572403
0.99658758
0.99662015
0.9967004
0.99650763
0.99654546
0.99651689
0.99661882
0.99642386
0.9964691
0.99626903
0.99638953
0.99636617
0.9963378
0.99653677
0.99642443
0.99645011
0.99612974
0.99591525
0.99603558
0.99600963
0.99622002
0.99618637
0.99632145
0.99609995
0.99470354
0.99478218
0.99432348
0.9944486
0.99446737
0.99463987
0.99435866
0.99419723
0.99437659
0.99556905
0.99569532
0.9955918
0.9954611
0.99581121
0.99566977
0.99532929
0.99550972
0.99624349
0.9963013
0.99617031
0.99614775
0.99622632
0.99609891
0.99601819
0.99566486
0.99579428
0.9958889
0.99576317
0.99606548
0.99597922
0.9958502
0.99593935
1.0359422
1.0377202
0.99529493
0.99647518
1.0374216
0.99653926
0.99516487
0.9946801
0.99564321
0.99512085
0.99467487
0.99659494
0.99769646
0.99784898
0.99737766
0.99743882
0.9974999
0.99734334
0.99763032
0.99768717
0.9977499
0.99756551
0.99707965
0.99719548
0.9972228
0.99701482
0.99743875
0.99762377
0.99750121
0.99758639
0.99724725
0.9970539
0.99711187
0.99718793
0.99730756
0.99723241
0.99740048
0.99720441
0.99556889
1.0373034
1.0372445
0.99540254
1.0373226
0.99637934
1.0372085
0.99632661
0.99616254
0.99649129
0.9968788
0.99699392
0.99680985
0.99580652
0.99589411
0.99722118
0.99740097
0.99731644
0.99728241
0.99628072
0.99642766
0.99696623
0.99712729
0.99708068
0.99701049
0.99677869
0.99658782
0.9966894
0.99663311
0.99682326
0.99678585
0.99688707
0.99669773
0.99715928
0.99719151
0.99727614
0.99709636
0.99706978
0.99699636
0.99712895
0.99696802
0.99700999
0.99682102
0.99694921
0.99688037
0.99474807
0.99571959
0.99495288
0.99478
0.99570399
0.99539826
0.99505251
0.99492437
0.99486682
0.99476533
0.99471687
0.99676934
0.99691714
0.99700995
0.9968305
0.99709264
0.99699364
0.99706888
0.99688324
0.99533866
0.99525892
0.99547795
0.99474302
0.99523291
0.9951733
0.99455277
0.99570517
0.99593603
0.99608702
0.99597103
0.99619217
0.99633385
0.99650738
0.99637501
0.99665963
0.99657061
0.99643436
0.99649577
0.99671688
0.996861
0.99680503
0.99666093
0.99669082
0.99674849
0.99664286
0.99655089
0.99483211
0.99563454
0.9962366
0.99357591
0.99412274
0.9934404
0.99469612
0.99420581
0.99443627
0.99490894
0.99464342
0.99405463
0.99388507
0.99376456
0.99446137
0.99426464
0.99490459
0.99468091
0.99337392
1.0369644
1.0207035
0.9943243
0.99403166
1.035239
0.99618248
0.9952673
1.0523194
0.99397401
1.0349239
0.99281213
0.99316548
0.99303244
0.99297425
0.99376722
0.99154279
0.99215006
0.9920969
0.99167422
0.99350141
0.99199391
0.9922394
0.99234997
0.99182988
0.9922827
0.99235596
0.99271038
0.99166111
0.99265978
0.99274331
0.99288365
0.99249082
0.99337229
0.9914708
0.99218785
0.9914911
0.99210676
0.99216009
0.99261265
0.99233228
0.99247364
0.9934933
0.9946475
0.99453268
0.99538301
0.99537518
0.99525521
0.9955013
0.99498903
0.99524482
0.99511394
0.99512267
0.99398107
0.99326495
0.9933046
0.99311816
0.99344178
0.99488385
0.99434955
0.99436379
0.99448349
0.9942132
0.99395154
0.99423642
0.99410067
0.99408288
0.99525891
0.99500174
0.99512968
0.99513242
0.99486106
0.99486634
0.99499569
0.99473071
0.99466882
0.99340791
0.99371796
0.99357689
0.99354752
0.99447193
0.99473802
0.99460105
0.99461059
0.99381882
0.99384154
0.99397164
0.99368431
0.99489449
0.99501173
0.99512426
0.99550597
0.99574029
0.99562294
0.99562441
0.99538318
0.99537879
0.99525803
0.99550278
0.99584842
0.99585348
0.99573852
0.99596259
0.99572867
0.99549492
0.99561791
0.99560658
0.99283366
1.0629664
0.9926634
1.1186582
0.99356931
0.9932381
0.99345002
0.99259165
0.99261183
0.9930794
0.99299687
0.99417409
0.99391037
0.9955598
0.99392105
0.99140489
0.99088006
0.99374063
0.99296214
0.99287602
0.99385469
0.99278588
0.99260986
0.99243279
0.99224796
0.99263093
0.99268966
0.99301121
0.9929825
0.99416362
0.99400234
0.99373604
0.99097059
0.9911904
0.99080238
0.99075419
0.99164178
0.99141963
0.99185336
0.99205504
0.99299266
0.99311323
0.99334357
0.99323641
0.99283501
0.99354534
0.99268836
0.99325242
0.99287932
0.99277673
0.99307452
0.99314694
0.99368285
0.99362133
0.9938067
0.99476132
0.99450125
0.99462481
0.99485813
0.99498503
0.99473156
0.99460148
0.99438597
0.99425287
0.99440744
0.99449348
0.99294857
0.99309822
0.99324876
0.9933945
0.99420979
0.99407809
0.99434071
0.99447116
0.99381107
0.99394531
0.99367492
0.99354296
0.99388441
0.99374881
0.99392264
0.99404792
0.99500729
0.99487504
0.99474949
0.99401054
0.99412763
0.9942998
0.99417417
0.99512722
0.99513404
0.99525502
0.99512733
0.99537124
0.99548379
0.99535618
0.99523911
)
;
    }
    air_to_vegetation
    {
        type            calculated;
        value           nonuniform List<scalar> 0();
    }
    procBoundary10to0
    {
        type            processor;
        value           uniform 0;
    }
    procBoundary10to3
    {
        type            processor;
        value           uniform 0;
    }
    procBoundary10to6
    {
        type            processor;
        value           uniform 0;
    }
    procBoundary10to9
    {
        type            processor;
        value           uniform 0;
    }
    procBoundary10to11
    {
        type            processor;
        value           uniform 0;
    }
}


// ************************************************************************* //
