/*--------------------------------*- C++ -*----------------------------------*\
  =========                 |
  \\      /  F ield         | OpenFOAM: The Open Source CFD Toolbox
   \\    /   O peration     | Website:  https://openfoam.org
    \\  /    A nd           | Version:  8
     \\/     M anipulation  |
\*---------------------------------------------------------------------------*/
/*   Windows 32 and 64 bit porting by blueCAPE: http://www.bluecape.com.pt   *\
|  Based on Windows porting (2.0.x v4) by Symscape: http://www.symscape.com   |
\*---------------------------------------------------------------------------*/
FoamFile
{
    version     2.0;
    format      ascii;
    class       volScalarField;
    location    "0";
    object      thicknessFraction;
}
// * * * * * * * * * * * * * * * * * * * * * * * * * * * * * * * * * * * * * //

dimensions      [0 0 0 0 0 0 0];

internalField   uniform 0;

boundaryField
{
    left
    {
        type            fixedValue;
        value           uniform 0;
    }
    right
    {
        type            fixedValue;
        value           uniform 0;
    }
    back
    {
        type            fixedValue;
        value           uniform 0;
    }
    front
    {
        type            fixedValue;
        value           uniform 0;
    }
    bottom
    {
        type            fixedValue;
        value           uniform 0;
    }
    top
    {
        type            fixedValue;
        value           uniform 0;
    }
    vegetation
    {
        type            fixedValue;
        value           uniform 0;
    }
    tower
    {
        type            fixedValue;
        value           nonuniform List<scalar> 
11191
(
0
0
0
0
0
0
0
0
0
0
0
0
0
0
0
0
0
0
0
0
0
0
0
0
0
0
0
0
0
0
0
0
0
0
0
0
0
0
0
0
0
0
0
0
0
0
0
0
0
0
0
0
0
0
0
0
0
0
0
0
0
0
0
0
0
0
0
0
0
0
0
0
0
0
0
0
0
0
0
0
0
0
0
0
0
0
0
0
0
0
0
0
0
0
0
0
0
0
0
0
0
0
0
0
0
0
0
0
0
0
0
0
0
0
0
0
0
0
0
0
0
0
0
0
0
0
0
0
0
0
0
0
0
0
0
0
0
0
0
0
0
0
0
0
0
0
0
0
0
0
0
0
0
0
0
0
0
0
0
0
0
0
0
0
0
0
0
0
0
0
0
0
0
0
0
0
0
0
0
0
0
0
0
0
0
0
0
0
0
0
0
0
0
0
0
0
0
0
0
0
0
0
0
0
0
0
0
0
0
0
0
0
0
0
0
0
0
0
0
0
0
0
0
0
0
0
0
0
0
0
0
0
0
0
0
0
0
0
0
0
0
0
0
0
0
0
0
0
0
0
0
0
0
0
0
0
0
0
0
0
0
0
0
0
0
0
0
0
0
0
0
0
0
0
0
0
0
0
0
0
0
0
0
0
0
0
0
0
0
0
0
0
0
0
0
0
0
0
0
0
0
0
0
0
0
0
0
0
0
0
0
0
0
0
0
0
0
0
0
0
0
0
0
0
0
0
0
0
0
0
0
0
0
0
0
0
0
0
0
0
0
0
0
0
0
0
0
0
0
0
0
0
0
0
0
0
0
0
0
0
0
0
0
0
0
0
0
0
0
0
0
0
0
0
0
0
0
0
0
0
0
0
0
0
0
0
0
0
0
0
0
0
0
0
0
0
0
0
0
0
0
0
0
0
0
0
0
0
0
0
0
0
0
0
0
0
0
0
0
0
0
0
0
0
0
0
0
0
0
0
0
0
0
0
0
0
0
0
0
0
0
0
0
0
0
0
0
0
0
0
0
0
0
0
0
0
0
0
0
0
0
0
0
0
0
0
0
0
0
0
0
0
0
0
0
0
0
0
0
0
0
0
0
0
0
0
0
0
0
0
0
0
0
0
0
0
0
0
0
0
0
0
0
0
0
0
0
0
0
0
0
0
0
0
0
0
0
0
0
0
0
0
0
0
0
0
0
0
0
0
0
0
0
0
0
0
0
0
0
0
0
0
0
0
0
0
0
0
0
0
0
0
0
0
0
0
0
0
0
0
0
0
0
0
0
0
0
0
0
0
0
0
0
0
0
0
0
0
0
0
0
0
0
0
0
0
0
0
0
0
0
0
0
0
0
0
0
0
0
0
0
0
0
0
0
0
0
0
0
0
0
0
0
0
0
0
0
0
0
0
0
0
0
0
0
0
0
0
0
0
0
0
0
0
0
0
0
0
0
0
0
0
0
0
0
0
0
0
0
0
0
0
0
0
0
0
0
0
0
0
0
0
0
0
0
0
0
0
0
0
0
0
0
0
0
0
0
0
0
0
0
0
0
0
0
0
0
0
0
0
0
0
0
0
0
0
0
0
0
0
0
0
0
0
0
0
0
0
0
0
0
0
0
0
0
0
0
0
0
0
0
0
0
0
0
0
0
0
0
0
0
0
0
0
0
0
0
0
0
0
0
0
0
0
0
0
0
0
0
0
0
0
0
0
0
0
0
0
0
0
0
0
0
0
0
0
0
0
0
0
0
0
0
0
0
0
0
0
0
0
0
0
0
0
0
0
0
0
0
0
0
0
0
0
0
0
0
0
0
0
0
0
0
0
0
0
0
0
0
0
0
0
0
0
0
0
0
0
0
0
0
0
0
0
0
0
0
0
0
0
0
0
0
0
0
0
0
0
0
0
0
0
0
0
0
0
0
0
0
0
0
0
0
0
0
0
0
0
0
0
0
0
0
0
0
0
0
0
0
0
0
0
0
0
0
0
0
0
0
0
0
0
0
0
0
0
0
0
0
0
0
0
0
0
0
0
0
0
0
0
0
0
0
0
0
0
0
0
0
0
0
0
0
0
0
0
0
0
0
0
0
0
0
0
0
0
0
0
0
0
0
0
0
0
0
0
0
0
0
0
0
0
0
0
0
0
0
0
0
0
0
0
0
0
0
0
0
0
0
0
0
0
0
0
0
0
0
0
0
0
0
0
0
0
0
0
0
0
0
0
0
0
0
0
0
0
0
0
0
0
0
0
0
0
0
0
0
0
0
0
0
0
0
0
0
0
0
0
0
0
0
0
0
0
0
0
0
0
0
0
0
0
0
0
0
0
0
0
0
0
0
0
0
0
0
0
0
0
0
0
0
0
0
0
0
0
0
0
0
0
0
0
0
0
0
0
0
0
0
0
0
0
0
0
0
0
0
0
0
0
0
0
0
0
0
0
0
0
0
0
0
0
0
0
0
0
0
0
0
0
0
0
0
0
0
0
0
0
0
0
0
0
0
0
0
0
0
0
0
0
0
0
0
0
0
0
0
0
0
0
0
0
0
0
0
0
0
0
0
0
0
0
0
0
0
0
0
0
0
0
0
0
0
0
0
0
0
0
0
0
0
0
0
0
0
0
0
0
0
0
0
0
0
0
0
0
0
0
0
0
0
0
0
0
0
0
0
0
0
0
0
0
0
0
0
0
0
0
0
0
0
0
0
0
0
0
0
0
0
0
0
0
0
0
0
0
0
0
0
0
0
0
0
0
0
0
0
0
0
0
0
0
0
0
0
0
0
0
0
0
0
0
0
0
0
0
0
0
0
0
0
0
0
0
0
0
0
0
0
0
0
0
0
0
0
0
0
0
0
0
0
0
0
0
0
0
0
0
0
0
0
0
0
0
0
0
0
0
0
0
0
0
0
0
0
0
0
0
0
0
0
0
0
0
0
0
0
0
0
0
0
0
0
0
0
0
0
0
0
0
0
0
0
0
0
0
0
0
0
0
0
0
0
0
0
0
0
0
0
0
0
0
0
0
0
0
0
0
0
0
0
0
0
0
0
0
0
0
0
0
0
0
0
0
0
0
0
0
0
0
0
0
0
0
0
0
0
0
0
0
0
0
0
0
0
0
0
0
0
0
0
0
0
0
0
0
0
0
0
0
0
0
0
0
0
0
0
0
0
0
0
0
0
0
0
0
0
0
0
0
0
0
0
0
0
0
0
0
0
0
0
0
0
0
0
0
0
0
0
0
0
0
0
0
0
0
0
0
0
0
0
0
0
0
0
0
0
0
0
0
0
0
0
0
0
0
0
0
0
0
0
0
0
0
0
0
0
0
0
0
0
0
0
0
0
0
0
0
0
0
0
0
0
0
0
0
0
0
0
0
0
0
0
0
0
0
0
0
0
0
0
0
0
0
0
0
0
0
0
0
0
0
0
0
0
0
0
0
0
0
0
0
0
0
0
0
0
0
0
0
0
0
0
0
0
0
0
0
0
0
0
0
0
0
0
0
0
0
0
0.99978159
0.99988369
0.41260503
0.99872956
0.99950481
0.99988369
0.9994541
0.99968632
0.99868464
0.99988368
0.99988369
0.99856858
0.41250693
0.99856864
0.99856869
0.99544473
0.99624092
0.99311841
0.99586857
0.99842141
0.99856869
0.99576339
0.99544473
0.99311841
0.56207317
0.81970088
0.99695657
0.95056122
0.7991245
0.80543066
0.50071981
0.74078351
0.73189909
0.92915362
0.41004214
0.94326806
0.99939187
0.41244442
0.99465136
0.92570114
0.92721759
0.82834748
0.64470971
0.92570253
0.92570074
0.92707048
0.92570105
0.80002639
0.82964183
0.99950622
0.4236469
0.42368596
0.9977157
0.1901055
0.42366993
0.99965968
0.44193662
0.44255001
0.99912301
0.9997195
0.26336024
0.44255813
0.58579596
0.92206834
0.42364609
0.40471203
0.3621669
0.86179159
0.86126119
0.86149997
0.50158765
0.9360278
0.44082474
0.95275064
0.99134222
0.99699563
0.98891845
0.96113233
0.98911192
0.85953318
0.99832353
0.98894641
0.95961087
0.50004594
0.37976643
0.22197579
0.80156568
0.56665734
0.78996355
0.48350911
0.5667256
0.56672045
0.79002462
0.99632355
0.95917822
0.47702437
0.44242683
0.21908675
0.99956262
0.99634911
0.93161639
0.93909203
0.89229487
0.92570236
0.92570223
0.92570076
0.92570243
0.9976875
0.99857782
0.99765517
0.9995786
0.44250301
0.4424998
0.99965462
0.99797127
0.99848435
0.44242626
0.99765552
0.99856869
0.99765538
0.99765552
0.99856869
0.99765552
0.8573547
0.93337685
0.93648173
0.44082474
0.97831687
0.99134224
0.99834308
0.98891848
0.98270507
0.98911195
0.85953318
0.99861341
0.98894644
0.95961087
0.99695653
0.95056122
0.7991245
0.80543066
0.80002639
0.99965968
0.44193662
0.44254956
0.99912302
0.99971949
0.26442
0.44255658
0.58579253
0.99950622
0.42364607
0.42368418
0.19176285
0.42366663
0.86179159
0.86126119
0.86149997
0.50158708
0.92206831
0.42364525
0.40471124
0.3621662
0.38688861
0.97682188
0.38679861
0.90229129
0.38472592
0.92427458
0.92302097
0.94138072
0.54718787
0.42366766
0.36201224
0.26576851
0.63627261
0.63574328
0.63515628
0.36895309
0.38677766
0.42360498
0.55057835
0.58568775
0.99877038
0.99785455
0.99753897
0.99666827
0.998458
0.99722121
0.5003667
0.92852642
0.74343856
0.98399966
0.50034455
0.97888145
0.63345319
0.96149043
0.98896695
0.8611237
0.95253731
0.98642266
0.9894014
0.79581702
0.68792329
0.77740544
0.52839606
0.73012576
0.50036476
0.43897074
0.94093107
0.94239357
0.99513659
0.97600326
0.9975744
0.93913531
0.99847504
0.99769496
0.44244495
0.47697144
0.99117006
0.99114769
0.99621113
0.92411462
0.92423596
0.93868715
0.940771
0.99765515
0.99856853
0.99759279
0.99765538
0.99856864
0.99765552
0.99592755
0.99610637
0.99844653
0.99722865
0.99830475
0.99715274
0.92852633
0.81119799
0.9839996
0.97888131
0.63345319
0.96284352
0.98896699
0.8611237
0.97055732
0.98642266
0.98940143
0.82834748
0.92427458
0.92302096
0.94138072
0.54718719
0.38688778
0.97682188
0.38679779
0.90229128
0.3847251
0.63627261
0.63574328
0.63515628
0.36895267
0.42366682
0.36201154
0.26576798
0.55057766
0.58568707
0.99877038
0.99785455
0.99753897
0.99666827
0.998458
0.99722121
0.38677683
0.42360415
0.090022408
0.18866478
0.94356559
0.41264841
0.94363657
0.20287354
0.20286954
0.95554679
0.84368499
0.62339523
0.20287198
0.20287206
0.20228057
0.20286289
0.92119578
0.94468009
0.90164644
0.99996362
0.58579931
0.58582003
0.99997137
0.96120625
0.58579726
0.99996518
0.56001794
0.9614029
0.99875866
0.99998185
0.96106387
0.99729647
0.98784519
0.47703331
0.99976524
0.47699872
0.99976065
0.47701609
0.99976527
0.99976528
0.4769987
0.4770158
0.99976526
0.47699826
0.99976528
0.20287222
0.20287308
0.2028733
0.2028723
0.94332284
0.39945696
0.91119553
0.99857863
0.98983005
0.94468009
0.90164641
0.99996362
0.58579862
0.58581834
0.99997137
0.96120625
0.58579657
0.99996518
0.5600173
0.9614029
0.99875866
0.96106387
0.99998185
0.99483593
0.55072797
0.55046885
0.99988798
0.8630592
0.58579577
0.50142208
0.9997944
0.86385637
0.99843391
0.99958066
0.86333541
0.44217722
0.99951347
0.44253316
0.99444572
0.47699779
0.99976527
0.47699822
0.99976526
0.4769988
0.99966606
0.47703056
0.99976522
0.20075723
0.18824151
0.80138636
0.95554678
0.99483593
0.55072728
0.55046816
0.99988798
0.8630592
0.58579508
0.50142151
0.9997944
0.86385637
0.99843391
0.86333541
0.99958066
0.079010274
0.088753832
0.078752839
0.079952966
0.18147688
0.31144425
0.084283601
0.10432899
0.063975474
0.2040971
0.35477984
0.090074838
0.10447095
0.071687618
0.07901067
0.088797886
0.078753015
0.079952966
0.24988693
0.93547518
0.54153437
0.20072213
0.19413406
0.41265357
0.94253873
0.94363862
0.20226671
0.20286235
0.20287325
0.20287227
0.20287348
0.20286978
0.044612759
0.20150986
0.12359358
0.2026515
0.20274432
0.20263061
0.20275751
0.094121152
0.06049269
0.13878176
0.082509915
0.42365242
0.42366072
0.40560025
0.4198417
0.44248699
0.95337813
0.9537697
0.9537543
0.44250492
0.95377585
0.43918409
0.55987906
0.94359885
0.95367959
0.44225021
0.95189177
0.42350447
0.42321533
0.2025669
0.1949584
0.17472437
0.43648674
0.86190995
0.43649026
0.4364796
0.86189856
0.43613439
0.4352619
0.85904841
0.43649264
0.42998271
0.85130897
0.24469594
0.31447351
0.31405474
0.31447145
0.31439316
0.65682201
0.64570154
0.38127607
0.95202585
0.8311457
0.28494134
0.62063345
0.65778971
0.65830203
0.65831294
0.65831329
0.27181053
0.55886979
0.37032339
0.74716992
0.43507383
0.30208209
0.31413781
0.6241642
0.65643356
0.65829878
0.65766535
0.48339492
0.21592594
0.39666096
0.11262647
0.13451712
0.24056133
0.77760997
0.48349675
0.47670811
0.2221038
0.47666732
0.13296509
0.13090845
0.11607601
0.12956974
0.12240488
0.10624111
0.11117105
0.10402813
0.13296554
0.13091513
0.11565982
0.12956975
0.86952531
0.8723951
0.86967452
0.87240868
0.4384147
0.95361033
0.94512013
0.45547813
0.42560303
0.91620295
0.87200345
0.86103001
0.41035293
0.87887987
0.91196357
0.86388005
0.8724847
0.87222966
0.87280618
0.86374002
0.87138982
0.86950847
0.87164542
0.2028731
0.20287311
0.20287287
0.20287215
0.87274372
0.85253692
0.87274375
0.85253849
0.85240172
0.87264711
0.87274329
0.85253799
0.44250932
0.95373546
0.95377747
0.95372514
0.44250757
0.95377739
0.36176952
0.37923064
0.82096163
0.81102655
0.95347677
0.42484125
0.91257784
0.85205668
0.87238365
0.85897681
0.84188049
0.87274373
0.85253661
0.87274368
0.85253622
0.85253617
0.87274363
0.87274366
0.85253618
0.87274362
0.85253617
0.87274362
0.85253618
0.85253617
0.87274362
0.87274362
0.85253618
0.33868624
0.35710387
0.32842585
0.31492567
0.65682264
0.64570202
0.38127613
0.95202585
0.83114589
0.28494151
0.62063386
0.65779038
0.65830273
0.65831345
0.65831396
0.27181068
0.55887007
0.30208235
0.31423865
0.37032346
0.74717006
0.43507383
0.62416453
0.65643392
0.65829924
0.65766573
0.094121155
0.060492637
0.13878176
0.082509915
0.04461269
0.20150946
0.12359337
0.2026511
0.20274392
0.20263021
0.20275712
0.44248699
0.95337813
0.9537697
0.95375423
0.44250492
0.95377585
0.43912531
0.5599622
0.94359483
0.95367933
0.44221772
0.95188786
0.42365158
0.42365986
0.40571073
0.41985515
0.43648674
0.86190995
0.43649026
0.4364796
0.86189856
0.43613438
0.4352619
0.85904842
0.43649264
0.4299827
0.85130895
0.24469566
0.42350363
0.4232145
0.2025665
0.19495801
0.17472403
0.38693819
0.3869433
0.085343469
0.23622421
0.20012409
0.20099827
0.20041399
0.20100801
0.1178125
0.19296281
0.1988393
0.19345539
0.42319834
0.42222409
0.63685482
0.63683915
0.63013027
0.62466276
0.37377225
0.40557605
0.33723833
0.35978394
0.86857921
0.84289184
0.86548397
0.84035977
0.47894929
0.49609293
0.85492175
0.833356
0.86880546
0.84325077
0.86888842
0.84339296
0.86806894
0.84264573
0.86887413
0.84337977
0.61786748
0.35698421
0.1981271
0.16850027
0.12605562
0.62412614
0.62541965
0.62482147
0.62541308
0.41391453
0.5487494
0.55889529
0.65524119
0.65776076
0.65739492
0.53558708
0.54656662
0.8657492
0.84078231
0.73407722
0.73089332
0.62357413
0.5963866
0.6566894
0.62072062
0.12572182
0.13232013
0.13293584
0.13268303
0.11199408
0.12573048
0.13275141
0.12833542
0.44296097
0.43845311
0.73946976
0.46024181
0.19876565
0.19166624
0.093756129
0.18675939
0.46162455
0.40682956
0.11785965
0.16115899
0.86967491
0.87240002
0.86940843
0.87237126
0.87223397
0.87306844
0.87210782
0.87306626
0.71941337
0.79629923
0.79628621
0.87169992
0.8237967
0.38546691
0.40366274
0.82243337
0.8078977
0.86842949
0.8427684
0.85605351
0.83361161
0.82270065
0.82773711
0.82293543
0.82796415
0.82693363
0.82201252
0.82293995
0.82796877
0.20038811
0.20101134
0.20041387
0.2010116
0.16843292
0.16745841
0.82040273
0.81595306
0.47886356
0.47730468
0.19884554
0.18658646
0.87260598
0.8523804
0.87274306
0.85253777
0.85253695
0.87274374
0.87274381
0.85253857
0.87274363
0.85253617
0.87274366
0.85253618
0.85253662
0.87274373
0.87274368
0.85253622
0.8681836
0.84267588
0.81902654
0.80555707
0.82208624
0.82713795
0.79249978
0.79586932
0.87207173
0.85188411
0.82082617
0.81093366
0.71444753
0.71516563
0.71643804
0.86873563
0.84320676
0.8688925
0.84339516
0.86876216
0.84321227
0.86889265
0.84339556
0.61786316
0.35698383
0.19812709
0.16850018
0.12605553
0.62412018
0.62541181
0.62481913
0.62540595
0.41391497
0.54874958
0.55889599
0.65524234
0.65776187
0.6573961
0.53558795
0.54656727
0.62357335
0.59638764
0.65669049
0.62072149
0.8657492
0.84078231
0.73407758
0.73089357
0.20012408
0.20099826
0.20041399
0.20100801
0.11781239
0.19296282
0.1988393
0.1934554
0.38693737
0.38694248
0.085343324
0.23622378
0.63685482
0.63683915
0.63013028
0.62466276
0.4231975
0.42222325
0.86857921
0.84289184
0.86548397
0.84035977
0.47894869
0.49609236
0.85492172
0.83335598
0.86880546
0.84325077
0.86888842
0.84339296
0.86806895
0.84264573
0.86887413
0.84337977
0.37377145
0.40557526
0.3372376
0.35978323
0.99943308
0.94448324
0.94688002
0.62678173
0.99178935
0.97082986
0.84282256
0.99985371
0.98901044
0.98989098
0.57265787
0.41263838
0.99988359
0.98954447
0.98901032
0.99988367
0.98900636
0.98900577
0.99997824
0.99875393
0.99999729
0.99881351
0.49995149
0.50028482
0.49451315
0.49415954
0.49691104
0.60515562
0.99117343
0.92378524
0.87217696
0.60540666
0.99013042
0.92381302
0.83096241
0.99988369
0.98900578
0.98900634
0.99988369
0.98900634
0.98900632
0.99856877
0.96793346
0.9679325
0.57251652
0.41210774
0.99979568
0.99998643
0.99996695
0.99980483
0.99856868
0.96793356
0.96793356
0.99980487
0.99998643
0.99998643
0.99980487
0.99980487
0.99998643
0.99998643
0.99980483
0.99856869
0.96793348
0.96793347
0.99717895
0.98140574
0.91722798
0.49468904
0.49556489
0.49691642
0.99997824
0.99875393
0.99881351
0.99999729
0.49995441
0.50028528
0.99529141
0.98927181
0.99791392
0.99987339
0.98722745
0.95695883
0.90291104
0.82738375
0.52767953
0.98684986
0.94456234
0.99580588
0.94472816
0.98892885
0.99984921
0.98924094
0.99953212
0.99855714
0.96783715
0.96793179
0.99980483
0.99998643
0.99980487
0.99998643
0.99856869
0.96793348
0.96793353
0.99980478
0.99975469
0.99998638
0.99958341
0.94408728
0.96737206
0.91092143
0.98927181
0.99791391
0.98722743
0.99987339
0.99529141
0.95695881
0.35117336
0.24328499
0.26795905
0.32369508
0.24446879
0.42497661
0.25852119
0.41410674
0.24220771
0.41428842
0.41166335
0.24458234
0.35519451
0.4457532
0.32500409
0.50248279
0.45410376
0.32004522
0.24260982
0.42091876
0.2829075
0.21505746
0.20839362
0.29228111
0.29762298
0.42265815
0.30654265
0.41259208
0.45919758
0.32254861
0.26014243
0.45498345
0.24451145
0.42583147
0.2588673
0.41422101
0.24221141
0.41428905
0.41167378
0.24458256
0.50071855
0.44205972
0.38903361
0.33641325
0.52110056
0.29767045
0.22636725
0.30505424
0.21963484
0.53811043
0.85799952
0.91020172
0.39740228
0.56874975
0.9776058
0.57257416
0.56044166
0.9865359
0.99937028
0.98657787
0.41269131
0.57233037
0.99883892
0.98527528
0.98657776
0.57536189
0.92573457
0.57534695
0.92601177
0.57454645
0.57534069
0.42842557
0.44725735
0.44748205
0.88759228
0.49679022
0.91619275
0.83761667
0.57536053
0.92570252
0.57536117
0.92570205
0.57536265
0.57536166
0.57456318
0.92599726
0.57534116
0.92573355
0.57536182
0.57534715
0.28305348
0.28107061
0.16953658
0.48471497
0.32298325
0.42596918
0.25912495
0.45911835
0.98988822
0.99965088
0.98990339
0.44230754
0.6003692
0.60104125
0.44253553
0.99959963
0.98968339
0.98990151
0.98984074
0.99828992
0.98797329
0.37410626
0.35616347
0.60104074
0.44256827
0.98940862
0.58011848
0.97921697
0.48376436
0.48353511
0.50032271
0.50032342
0.48376789
0.48376845
0.47690071
0.28270818
0.4926147
0.27219328
0.50027258
0.49963934
0.48262667
0.48376856
0.30946884
0.42922617
0.42564481
0.31269147
0.48672876
0.49308818
0.425605
0.42560776
0.42560607
0.42478017
0.45152493
0.75801447
0.65177456
0.53736023
0.94603875
0.43694191
0.59900344
0.58148175
0.41815133
0.42824585
0.56560562
0.87754159
0.98858552
0.86471869
0.99205581
0.98891891
0.87857324
0.87857362
0.98006604
0.87823779
0.98895421
0.87856427
0.4122213
0.48263731
0.42574957
0.99776382
0.98902157
0.87856196
0.8781306
0.83608447
0.98976837
0.87714703
0.99342598
0.49055944
0.3283042
0.36983853
0.49514371
0.50076036
0.49518508
0.30138017
0.21545406
0.29423969
0.60351765
0.72544245
0.52460029
0.68737116
0.36225546
0.40523688
0.76035752
0.44062951
0.43079076
0.47203158
0.32202539
0.30817439
0.48350911
0.3617745
0.32202537
0.99311341
0.97098403
0.96666172
0.96704797
0.98290264
0.96655426
0.4723314
0.96244891
0.95182408
0.4422161
0.60090063
0.29247776
0.28586192
0.9922402
0.98981091
0.98154963
0.91706997
0.96389626
0.96266538
0.9478991
0.89866576
0.96186012
0.57536066
0.92570218
0.57536119
0.92570213
0.57536137
0.5753612
0.57536271
0.92570205
0.57536169
0.92570249
0.57536128
0.57536126
0.95862036
0.99766153
0.95870809
0.99857191
0.96787464
0.96793184
0.99765541
0.95871297
0.95871028
0.98986931
0.99964895
0.98990384
0.44252129
0.60099411
0.60099204
0.44251225
0.9996547
0.98988188
0.98990386
0.98966192
0.95838724
0.94741045
0.98635931
0.96769738
0.95331406
0.20108295
0.20505719
0.6008679
0.44191819
0.99765552
0.95871272
0.95871285
0.99856869
0.96793348
0.96793353
0.99765549
0.9587131
0.95871293
0.95871271
0.99765552
0.9587127
0.99856869
0.96793348
0.96793347
0.99765552
0.95871271
0.9587127
0.44292436
0.38944451
0.33672218
0.52232952
0.29485406
0.21640374
0.2941757
0.21698992
0.6122249
0.86001818
0.92104044
0.3086472
0.42456565
0.42488332
0.30832229
0.49191299
0.49692516
0.43675235
0.4259797
0.45152508
0.75801452
0.65177457
0.53736043
0.44504923
0.45861867
0.93543326
0.43694191
0.59900343
0.58166395
0.4183504
0.42829455
0.56624402
0.87754186
0.98858552
0.86471892
0.99664627
0.87857347
0.98891894
0.87857389
0.99169354
0.87823806
0.98895424
0.87856455
0.41222142
0.42581342
0.48263731
0.99780734
0.87856218
0.98902159
0.8781308
0.99342929
0.83608464
0.98976839
0.87714722
0.32298325
0.42596921
0.25912496
0.45911835
0.28305348
0.28107028
0.48471495
0.16953642
0.98988821
0.99965088
0.98990339
0.44230754
0.6003692
0.60104085
0.44253541
0.99959963
0.98968339
0.98990151
0.98984069
0.99828986
0.98797221
0.3743292
0.35690977
0.60103937
0.44256341
0.9894083
0.58012351
0.97921467
0.48376436
0.48353511
0.50032271
0.50032346
0.48376789
0.48376845
0.47690069
0.28270784
0.49261467
0.27219297
0.50027258
0.49963933
0.48262667
0.48376856
0.40397988
0.38692542
0.99244733
0.40402498
0.38698653
0.50574986
0.38916076
0.37336908
0.92303424
0.57025965
0.57104858
0.92288469
0.56950166
0.57102604
0.98770039
0.56824519
0.56081404
0.97591611
0.32992574
0.55765421
0.98455004
0.44347773
0.40340425
0.38633798
0.98493592
0.53153448
0.95097365
0.98921825
0.55984155
0.94341463
0.96617502
0.99720047
0.96289606
0.95417667
0.99810095
0.95165142
0.99832852
0.96585274
0.96636913
0.99712409
0.95404864
0.95450529
0.96632349
0.9984269
0.9663752
0.95441957
0.99717683
0.95451142
0.84690932
0.56617492
0.48287142
0.53810897
0.98378417
0.85624361
0.85669589
0.50034521
0.85509865
0.98319958
0.85670005
0.97965364
0.98838393
0.8781845
0.87780498
0.98172387
0.74676332
0.98072617
0.87561215
0.96385801
0.85517086
0.81929236
0.95254294
0.87732225
0.83089924
0.72496902
0.43660883
0.41848497
0.62963678
0.34228339
0.38262776
0.53687807
0.71245117
0.49381831
0.48694711
0.50021361
0.48463814
0.94245524
0.26187282
0.53827292
0.97911157
0.56806375
0.55517466
0.49498595
0.3742663
0.4269008
0.97420398
0.96483232
0.9663695
0.9709
0.9893891
0.96657866
0.98873027
0.96609393
0.95353424
0.99204169
0.95410893
0.94487767
0.42726588
0.95140949
0.91668216
0.45543163
0.96224812
0.91602947
0.94595329
0.99557377
0.94731361
0.99527557
0.94348942
0.94472971
0.99615069
0.94715408
0.94731216
0.92303579
0.5702433
0.57105694
0.92304664
0.5701987
0.57105645
0.93813323
0.56816578
0.53720173
0.57257267
0.93616874
0.54061237
0.95871298
0.99765493
0.95871034
0.99856777
0.96793347
0.96793254
0.99765355
0.95859995
0.95870806
0.99765549
0.9587131
0.95871294
0.99856868
0.96793356
0.96793356
0.99765552
0.95871272
0.95871286
0.96581376
0.94669094
0.9117786
0.95397628
0.95819507
0.91233805
0.9663037
0.99843524
0.96637695
0.95440168
0.99719506
0.95451415
0.9662746
0.99842305
0.96637692
0.95439086
0.99718931
0.95451402
0.8335929
0.84690795
0.56617489
0.48287117
0.85624287
0.98378404
0.85669369
0.8550968
0.98319941
0.85669763
0.97511171
0.87818492
0.98838397
0.8778054
0.98002189
0.7467636
0.9807262
0.87561257
0.8551706
0.96385802
0.81929276
0.87732266
0.95254294
0.83089957
0.42842529
0.44725706
0.44748176
0.88759227
0.49679021
0.92303424
0.57025965
0.57104858
0.92288469
0.56950164
0.57102604
0.98770038
0.56824519
0.56081406
0.97591607
0.3299254
0.55765423
0.40397954
0.38692459
0.99244733
0.40402463
0.3869857
0.50574985
0.38916043
0.37336831
0.98455004
0.44347743
0.98493587
0.53153381
0.95097361
0.98921822
0.5598409
0.9434146
0.96617502
0.99720046
0.96289606
0.95417667
0.99810095
0.95165142
0.96585274
0.99832852
0.96636913
0.95404864
0.99712409
0.95450529
0.96632349
0.9984269
0.9663752
0.95441957
0.99717683
0.95451142
0.40340391
0.38633716
0.12172101
0.41264712
0.57271773
0.98137543
0.98078585
0.96214047
0.97785384
0.93477554
0.9650711
0.28285537
0.28294138
0.49236905
0.49229974
0.50062805
0.4991703
0.499003
0.50025528
0.28275312
0.28295029
0.49000141
0.49227225
0.58580371
0.98944626
0.98944636
0.98944085
0.58580911
0.98944638
0.95873262
0.99827695
0.99813197
0.58563719
0.98944591
0.98940669
0.94998317
0.58529085
0.98920476
0.96147723
0.99777921
0.96147198
0.99722365
0.96550623
0.477019
0.96252794
0.96254993
0.47701138
0.96255051
0.96255011
0.47700822
0.96255117
0.96255094
0.47700502
0.96255054
0.96255082
0.4770053
0.96255115
0.9625509
0.4770016
0.96255056
0.9625508
0.40993106
0.55353707
0.96551895
0.28285504
0.28294104
0.49236902
0.49229972
0.50062805
0.4991703
0.499003
0.5002553
0.28275279
0.28294996
0.58580302
0.98944623
0.98944633
0.98944072
0.5858084
0.98944635
0.95873262
0.99827695
0.99813196
0.5856365
0.98944588
0.98940666
0.94998314
0.58529016
0.98920473
0.96147723
0.99777921
0.96147198
0.99722366
0.55079023
0.9850725
0.98509855
0.98378939
0.55079588
0.98509891
0.85861671
0.98954599
0.9969105
0.58528499
0.98942095
0.98922001
0.85102069
0.58403623
0.98792815
0.86422253
0.98644657
0.98624335
0.86421081
0.98582556
0.44257712
0.9503896
0.95170721
0.44257386
0.95164234
0.95170548
0.47699507
0.96255049
0.96255045
0.47699521
0.96255047
0.96255044
0.47701155
0.96255049
0.96255018
0.47701831
0.96250818
0.96254997
0.82170029
0.95486637
0.98137543
0.98078584
0.96214046
0.97785384
0.55078954
0.98507246
0.98509851
0.98378935
0.55079519
0.98509887
0.85861671
0.98954599
0.9969105
0.58528431
0.98942092
0.98921998
0.85102067
0.58403554
0.98792812
0.86422253
0.98644657
0.98624335
0.86421081
0.98582556
0.98618293
0.084128769
0.10968518
0.46241728
0.48418912
0.49468525
0.43887507
0.36217468
0.22075012
0.27717599
0.2888921
0.26256012
0.13871267
0.26441913
0.24480531
0.36867368
0.4100692
0.290201
0.53147638
0.29967241
0.23551664
0.049431076
0.047150187
0.062617421
0.39754806
0.4694028
0.45285326
0.41145224
0.25057075
0.13094303
0.18522978
0.17560928
0.29695117
0.16140202
0.22344388
0.23052419
0.26611422
0.26692258
0.18903476
0.37335066
0.34060441
0.27911935
0.057237121
0.3678067
0.24537999
0.28165055
0.32614963
0.5763049
0.79252057
0.61170955
0.71344789
0.41724218
0.47724573
0.42341235
0.47439055
0.29765468
0.22651326
0.21962076
0.30522428
0.35332036
0.34141346
0.81486094
0.90158629
0.47937976
0.78978371
0.41267171
0.57272329
0.82054075
0.94354971
0.82131983
0.9436379
0.3777488
0.44741327
0.44749794
0.08395832
0.44244115
0.60099794
0.44251919
0.60101543
0.42402514
0.59583141
0.44258064
0.60041898
0.3192364
0.43648878
0.4776896
0.23872056
0.23872305
0.47775692
0.43648925
0.31923796
0.31922544
0.43645764
0.47722413
0.2383892
0.23871054
0.47774224
0.43638803
0.31886431
0.43631785
0.31850914
0.47757545
0.23872284
0.43648098
0.31924195
0.23829806
0.47660003
0.41004537
0.31480005
0.2803411
0.13316363
0.35457213
0.17846157
0.23564669
0.47271038
0.31447661
0.23773257
0.23302632
0.23568192
0.30944913
0.42914252
0.42561704
0.31272448
0.31444798
0.23744882
0.23773123
0.31446991
0.3686085
0.44606093
0.52282462
0.32625423
0.33672534
0.40077886
0.31445852
0.23767889
0.42314794
0.51959027
0.58207761
0.41582494
0.42807497
0.56622464
0.2197271
0.38871341
0.37355083
0.37291691
0.27086659
0.50970399
0.19998648
0.20615762
0.15105369
0.31718757
0.27063015
0.41521828
0.47619407
0.23769333
0.20270846
0.41648348
0.43073576
0.31797497
0.31126054
0.2285214
0.4563979
0.44012046
0.31351337
0.23748203
0.42132331
0.47383676
0.41546004
0.21543626
0.30153689
0.29422044
0.473818
0.42139277
0.41543693
0.44150981
0.595239
0.38398497
0.57720595
0.44251668
0.60101998
0.44251087
0.60101885
0.26689446
0.50001848
0.27500284
0.51314889
0.438821
0.57600355
0.36793969
0.24537089
0.28170708
0.32615603
0.57937739
0.80867839
0.62167464
0.71840884
0.41500866
0.47283759
0.41429139
0.47346319
0.29710928
0.22642587
0.21908378
0.30514718
0.34826867
0.2618526
0.30932623
0.42913299
0.42551874
0.31271035
0.23226312
0.23197505
0.3545839
0.28077397
0.25169509
0.32068576
0.36860855
0.44606031
0.52282461
0.32625313
0.3367256
0.40077917
0.31655847
0.23825391
0.42314795
0.51959036
0.58210871
0.41582497
0.42808058
0.56622775
0.21972732
0.38871363
0.37355116
0.37291712
0.27086698
0.50970434
0.19998659
0.20615781
0.15105377
0.31718774
0.31126212
0.22852174
0.45639823
0.44012079
0.31352758
0.2375965
0.27063019
0.4152183
0.47619406
0.23769332
0.2027085
0.41648355
0.43073576
0.31797496
0.083958297
0.44244115
0.60099794
0.44251916
0.60101542
0.42398074
0.59578788
0.442567
0.60039215
0.3192364
0.43648878
0.4776896
0.23872056
0.23872305
0.47775692
0.43648925
0.31923796
0.31922544
0.43645764
0.47722412
0.23838919
0.23871054
0.47774224
0.43638803
0.31886431
0.43631786
0.31850914
0.47757545
0.23872284
0.43648098
0.31924195
0.23829807
0.47660004
0.31480005
0.41004531
0.28034078
0.13316347
0.23564669
0.47271038
0.35457198
0.17846136
0.56691999
0.40398866
0.3869359
0.56693296
0.40400772
0.38696092
0.56695711
0.56695416
0.54494598
0.34607611
0.33282306
0.48243978
0.43937354
0.56602786
0.40115085
0.38410384
0.56255544
0.35977892
0.44978701
0.46766027
0.33748917
0.31738496
0.43821481
0.32281312
0.43394906
0.48066612
0.74423236
0.63855285
0.54253471
0.28725374
0.41262403
0.40149898
0.29357589
0.099446445
0.09844486
0.29566621
0.41457064
0.29447717
0.41568119
0.37774855
0.44741298
0.44749765
0.56691974
0.40398831
0.38693507
0.56693272
0.40400738
0.38696009
0.56695687
0.56695392
0.54494574
0.34607581
0.33282241
0.48243956
0.43937325
0.56602762
0.40115051
0.38410302
0.56255519
0.49987695
0.5006803
0.49942118
0.50017248
0.49992622
0.49971197
0.50068779
0.50021573
0.48410221
0.49966221
0.49761597
0.49407044
0.68787896
0.3617736
0.40535191
0.50069947
0.50073045
0.50088284
0.50030634
0.76088981
0.40536262
0.43094485
0.90526598
0.96431076
0.91192504
0.49327097
0.49735395
0.48269806
0.49943622
0.47713882
0.49639821
0.47885872
0.4951997
0.49962514
0.50011079
0.49902414
0.5006805
0.998314
0.99997133
0.99831737
0.99997173
0.99831741
0.99831742
0.99989075
0.99831729
0.99829666
0.48483354
0.483147
0.61367604
0.62019288
0.99402251
0.99230774
0.99976522
0.9923072
0.99229325
0.99976534
0.99230684
0.99976527
0.99230773
0.99230777
0.99230783
0.99976528
0.99230779
0.99230777
0.99976527
0.99230781
0.99230783
0.99976528
0.99230781
0.48268875
0.48282556
0.61133891
0.61040092
0.99645033
0.99831398
0.99997133
0.99831736
0.99997173
0.99831741
0.99831742
0.99989075
0.99831729
0.99829665
0.99588855
0.99929345
0.99732371
0.9973105
0.99987085
0.99732454
0.99829641
0.99926341
0.99813798
0.98890318
0.99949197
0.98894004
0.98746583
0.99891365
0.98893969
0.99230772
0.99976527
0.99230774
0.99230776
0.99976527
0.99230775
0.99227468
0.99975736
0.99230686
0.99230773
0.99976474
0.99230722
0.99588854
0.99929345
0.9973237
0.99731049
0.99987085
0.99732453
0.9982964
0.99926341
0.99813797
0.21458924
0.20150442
0.093415181
0.2846344
0.1263687
0.44484516
0.43305518
0.71674466
0.58410814
0.21458903
0.20150401
0.093414981
0.28463417
0.12636845
0.16624168
0.25968885
0.24654485
0.34946369
0.70174344
0.16624164
0.34946324
0.70174311
0.2596886
0.24654429
0.4816735
0.47823616
0.49656181
0.49649233
0.50078027
0.50078185
0.5002892
0.50025472
0.47838616
0.47730981
0.49661888
0.49636566
0.77908418
0.62143855
0.81507962
0.72086775
0.93769094
0.86931767
0.77940803
0.62010369
0.81294348
0.92138563
0.69619432
0.858099
0.49816938
0.50084802
0.50078029
0.7160662
0.69674581
0.54792004
0.65251493
0.54759406
0.50091329
0.49954257
0.62015226
0.50084802
0.86844988
0.66365476
0.48258477
0.47836298
0.49724892
0.49659122
0.50078031
0.50078255
0.5002895
0.50025911
0.47838692
0.47732184