/*--------------------------------*- C++ -*----------------------------------*\
  =========                 |
  \\      /  F ield         | OpenFOAM: The Open Source CFD Toolbox
   \\    /   O peration     | Website:  https://openfoam.org
    \\  /    A nd           | Version:  8
     \\/     M anipulation  |
\*---------------------------------------------------------------------------*/
/*   Windows 32 and 64 bit porting by blueCAPE: http://www.bluecape.com.pt   *\
|  Based on Windows porting (2.0.x v4) by Symscape: http://www.symscape.com   |
\*---------------------------------------------------------------------------*/
FoamFile
{
    version     2.0;
    format      ascii;
    class       volScalarField;
    location    "0";
    object      thickness;
}
// * * * * * * * * * * * * * * * * * * * * * * * * * * * * * * * * * * * * * //

dimensions      [0 0 0 0 0 0 0];

internalField   uniform 0;

boundaryField
{
    left
    {
        type            fixedValue;
        value           uniform 0;
    }
    right
    {
        type            fixedValue;
        value           uniform 0;
    }
    back
    {
        type            fixedValue;
        value           uniform 0;
    }
    front
    {
        type            fixedValue;
        value           uniform 0;
    }
    bottom
    {
        type            fixedValue;
        value           uniform 0;
    }
    top
    {
        type            fixedValue;
        value           uniform 0;
    }
    vegetation
    {
        type            fixedValue;
        value           uniform 0;
    }
    tower
    {
        type            fixedValue;
        value           nonuniform List<scalar> 
11191
(
0
0
0
0
0
0
0
0
0
0
0
0
0
0
0
0
0
0
0
0
0
0
0
0
0
0
0
0
0
0
0
0
0
0
0
0
0
0
0
0
0
0
0
0
0
0
0
0
0
0
0
0
0
0
0
0
0
0
0
0
0
0
0
0
0
0
0
0
0
0
0
0
0
0
0
0
0
0
0
0
0
0
0
0
0
0
0
0
0
0
0
0
0
0
0
0
0
0
0
0
0
0
0
0
0
0
0
0
0
0
0
0
0
0
0
0
0
0
0
0
0
0
0
0
0
0
0
0
0
0
0
0
0
0
0
0
0
0
0
0
0
0
0
0
0
0
0
0
0
0
0
0
0
0
0
0
0
0
0
0
0
0
0
0
0
0
0
0
0
0
0
0
0
0
0
0
0
0
0
0
0
0
0
0
0
0
0
0
0
0
0
0
0
0
0
0
0
0
0
0
0
0
0
0
0
0
0
0
0
0
0
0
0
0
0
0
0
0
0
0
0
0
0
0
0
0
0
0
0
0
0
0
0
0
0
0
0
0
0
0
0
0
0
0
0
0
0
0
0
0
0
0
0
0
0
0
0
0
0
0
0
0
0
0
0
0
0
0
0
0
0
0
0
0
0
0
0
0
0
0
0
0
0
0
0
0
0
0
0
0
0
0
0
0
0
0
0
0
0
0
0
0
0
0
0
0
0
0
0
0
0
0
0
0
0
0
0
0
0
0
0
0
0
0
0
0
0
0
0
0
0
0
0
0
0
0
0
0
0
0
0
0
0
0
0
0
0
0
0
0
0
0
0
0
0
0
0
0
0
0
0
0
0
0
0
0
0
0
0
0
0
0
0
0
0
0
0
0
0
0
0
0
0
0
0
0
0
0
0
0
0
0
0
0
0
0
0
0
0
0
0
0
0
0
0
0
0
0
0
0
0
0
0
0
0
0
0
0
0
0
0
0
0
0
0
0
0
0
0
0
0
0
0
0
0
0
0
0
0
0
0
0
0
0
0
0
0
0
0
0
0
0
0
0
0
0
0
0
0
0
0
0
0
0
0
0
0
0
0
0
0
0
0
0
0
0
0
0
0
0
0
0
0
0
0
0
0
0
0
0
0
0
0
0
0
0
0
0
0
0
0
0
0
0
0
0
0
0
0
0
0
0
0
0
0
0
0
0
0
0
0
0
0
0
0
0
0
0
0
0
0
0
0
0
0
0
0
0
0
0
0
0
0
0
0
0
0
0
0
0
0
0
0
0
0
0
0
0
0
0
0
0
0
0
0
0
0
0
0
0
0
0
0
0
0
0
0
0
0
0
0
0
0
0
0
0
0
0
0
0
0
0
0
0
0
0
0
0
0
0
0
0
0
0
0
0
0
0
0
0
0
0
0
0
0
0
0
0
0
0
0
0
0
0
0
0
0
0
0
0
0
0
0
0
0
0
0
0
0
0
0
0
0
0
0
0
0
0
0
0
0
0
0
0
0
0
0
0
0
0
0
0
0
0
0
0
0
0
0
0
0
0
0
0
0
0
0
0
0
0
0
0
0
0
0
0
0
0
0
0
0
0
0
0
0
0
0
0
0
0
0
0
0
0
0
0
0
0
0
0
0
0
0
0
0
0
0
0
0
0
0
0
0
0
0
0
0
0
0
0
0
0
0
0
0
0
0
0
0
0
0
0
0
0
0
0
0
0
0
0
0
0
0
0
0
0
0
0
0
0
0
0
0
0
0
0
0
0
0
0
0
0
0
0
0
0
0
0
0
0
0
0
0
0
0
0
0
0
0
0
0
0
0
0
0
0
0
0
0
0
0
0
0
0
0
0
0
0
0
0
0
0
0
0
0
0
0
0
0
0
0
0
0
0
0
0
0
0
0
0
0
0
0
0
0
0
0
0
0
0
0
0
0
0
0
0
0
0
0
0
0
0
0
0
0
0
0
0
0
0
0
0
0
0
0
0
0
0
0
0
0
0
0
0
0
0
0
0
0
0
0
0
0
0
0
0
0
0
0
0
0
0
0
0
0
0
0
0
0
0
0
0
0
0
0
0
0
0
0
0
0
0
0
0
0
0
0
0
0
0
0
0
0
0
0
0
0
0
0
0
0
0
0
0
0
0
0
0
0
0
0
0
0
0
0
0
0
0
0
0
0
0
0
0
0
0
0
0
0
0
0
0
0
0
0
0
0
0
0
0
0
0
0
0
0
0
0
0
0
0
0
0
0
0
0
0
0
0
0
0
0
0
0
0
0
0
0
0
0
0
0
0
0
0
0
0
0
0
0
0
0
0
0
0
0
0
0
0
0
0
0
0
0
0
0
0
0
0
0
0
0
0
0
0
0
0
0
0
0
0
0
0
0
0
0
0
0
0
0
0
0
0
0
0
0
0
0
0
0
0
0
0
0
0
0
0
0
0
0
0
0
0
0
0
0
0
0
0
0
0
0
0
0
0
0
0
0
0
0
0
0
0
0
0
0
0
0
0
0
0
0
0
0
0
0
0
0
0
0
0
0
0
0
0
0
0
0
0
0
0
0
0
0
0
0
0
0
0
0
0
0
0
0
0
0
0
0
0
0
0
0
0
0
0
0
0
0
0
0
0
0
0
0
0
0
0
0
0
0
0
0
0
0
0
0
0
0
0
0
0
0
0
0
0
0
0
0
0
0
0
0
0
0
0
0
0
0
0
0
0
0
0
0
0
0
0
0
0
0
0
0
0
0
0
0
0
0
0
0
0
0
0
0
0
0
0
0
0
0
0
0
0
0
0
0
0
0
0
0
0
0
0
0
0
0
0
0
0
0
0
0
0
0
0
0
0
0
0
0
0
0
0
0
0
0
0
0
0
0
0
0
0
0
0
0
0
0
0
0
0
0
0
0
0
0
0
0
0
0
0
0
0
0
0
0
0
0
0
0
0
0
0
0
0
0
0
0
0
0
0
0
0
0
0
0
0
0
0
0
0
0
0
0
0
0
0
0
0
0
0
0
0
0
0
0
0
0
0
0
0
0
0
0
0
0
0
0
0
0
0
0
0
0
0
0
0
0
0
0
0
0
0
0
0
0
0
0
0
0
0
0
0
0
0
0
0
0
0
0
0
0
0
0
0
0
0
0
0
0
0
0
0
0
0
0
0
0
0
0
0
0
0
0
0
0
0
0
0
0
0
0
0
0
0
0
0
0
0
0
0
0
0
0
0
0
0
0
0
0
0
0
0
0
0
0
0
0
0
0
0
0
0
0
0
0
0
0
0
0
0
0
0
0
0
0
0
0
0
0
0
0
0
0
0
0
0
0
0
0
0
0
0
0
0
0
0
0
0
0
0
0
0
0
0
0
0
0
0
0
0
0
0
0
0
0
0
0
0
0
0
0
0
0
0
0
0
0
0
0
0
0
0
0
0
0
0
0
0
0
0
0
0
0
0
0
0
0
0
0
0
0
0
0
0
0
0
0
0
0
0
0
0
0
0
0
0
0
0
0
0
0
0
0
0
0
0
0
0
0
0.54588075
0.5459365
0.11264117
0.54530634
0.54572963
0.5459365
0.54570194
0.54582873
0.54528181
0.54593649
0.5459365
0.54521844
0.11261439
0.54521848
0.5452185
0.54351282
0.54394754
0.54224265
0.54374424
0.54513809
0.5452185
0.54368681
0.54351282
0.54224265
0.30689195
0.44755668
0.54433829
0.51900643
0.43632198
0.43976514
0.27339302
0.4044678
0.39961691
0.50731788
0.1119415
0.51502436
0.54566796
0.11259733
0.54307964
0.50543282
0.5062608
0.45227772
0.3520115
0.50543358
0.5054326
0.50618048
0.50543277
0.43681441
0.45298444
0.5457304
0.1156556
0.11566627
0.54475277
0.0259494
0.11566189
0.54581419
0.1206487
0.12081615
0.54552117
0.54584685
0.071897345
0.12081837
0.31984459
0.50344932
0.11565538
0.11048639
0.098871563
0.47053821
0.47024861
0.47037898
0.27386686
0.51107118
0.12034516
0.52020185
0.54127285
0.54435962
0.53994947
0.52477825
0.54005511
0.46930512
0.54508465
0.53996474
0.52394754
0.27302508
0.10367623
0.06059939
0.43765486
0.30939491
0.4313201
0.26399597
0.30943218
0.30942937
0.43135344
0.54399266
0.52371131
0.13022765
0.12078252
0.029905342
0.54576119
0.54400662
0.50866255
0.51274425
0.487193
0.50543349
0.50543342
0.50543262
0.50543353
0.54473737
0.54522349
0.54471972
0.54576992
0.12080332
0.12080245
0.54581142
0.54489231
0.54517246
0.12078237
0.54471991
0.5452185
0.54471984
0.54471991
0.5452185
0.54471991
0.46811567
0.50962376
0.51131902
0.12034515
0.53416101
0.54127286
0.54509532
0.53994949
0.53655697
0.54005513
0.46930511
0.54524292
0.53996475
0.52394754
0.54433826
0.51900642
0.43632198
0.43976514
0.43681441
0.54581419
0.1206487
0.12081603
0.54552117
0.54584684
0.072186659
0.12081795
0.31984272
0.54573039
0.11565538
0.11566578
0.02617563
0.11566099
0.47053821
0.47024861
0.47037898
0.27386655
0.5034493
0.11565515
0.11048617
0.098871372
0.10562059
0.53334475
0.10559602
0.49265104
0.10503018
0.50465392
0.50396945
0.51399387
0.29876458
0.11566127
0.098829343
0.072554802
0.34740485
0.34711583
0.34679533
0.20144839
0.1055903
0.11564416
0.30061578
0.31978551
0.54532863
0.54482858
0.54465628
0.54418088
0.54515807
0.54448278
0.27320022
0.50697543
0.40591746
0.53726381
0.27318812
0.53446927
0.34586544
0.52497378
0.53997596
0.47017354
0.52008537
0.53858677
0.54021317
0.43451609
0.37560611
0.42446337
0.28850425
0.39864866
0.27319916
0.11983901
0.51374836
0.51454689
0.54334458
0.53289778
0.54467562
0.51276788
0.54516737
0.54474145
0.12078747
0.1302132
0.54117885
0.54116664
0.54393127
0.50456658
0.50463284
0.51252318
0.51366096
0.54471971
0.54521842
0.54468566
0.54471984
0.54521848
0.54471991
0.54377644
0.54387408
0.5451518
0.54448684
0.54507439
0.5444454
0.50697538
0.4429141
0.53726378
0.53446919
0.34586544
0.52571256
0.53997598
0.47017354
0.5299243
0.53858677
0.54021318
0.45227772
0.50465392
0.50396944
0.51399387
0.29876421
0.10562036
0.53334475
0.1055958
0.49265104
0.10502995
0.34740485
0.34711583
0.34679533
0.20144816
0.11566104
0.098829151
0.072554659
0.3006154
0.31978514
0.54532863
0.54482858
0.54465628
0.54418088
0.54515807
0.54448278
0.10559008
0.11564393
0.024576117
0.10301097
0.51518681
0.11265301
0.51522557
0.11076895
0.11076677
0.52172854
0.46065201
0.34037379
0.1107681
0.11076814
0.11044519
0.11076314
0.5029729
0.51579533
0.49229895
0.54598014
0.31984642
0.31985773
0.54598437
0.52481861
0.3198453
0.54598099
0.3057698
0.52492599
0.54532223
0.54599009
0.52474088
0.54452387
0.53936347
0.13023009
0.54587182
0.13022065
0.54586931
0.13022539
0.54587184
0.54587184
0.13022065
0.13022531
0.54587183
0.13022052
0.54587184
0.11076823
0.1107687
0.11076882
0.11076828
0.51505427
0.10905175
0.49751276
0.54522393
0.54044721
0.51579533
0.49229894
0.54598014
0.31984605
0.31985682
0.54598437
0.52481861
0.31984493
0.54598099
0.30576944
0.52492599
0.54532223
0.52474088
0.54599009
0.54318042
0.30069747
0.30055599
0.54593883
0.47123032
0.31984449
0.27377646
0.54588774
0.47166558
0.54514491
0.54577104
0.47138114
0.12071438
0.54573435
0.12081155
0.54296737
0.1302204
0.54587184
0.13022051
0.54587183
0.13022067
0.54581767
0.13022934
0.54587181
0.10961345
0.10277986
0.43755695
0.52172854
0.54318042
0.30069709
0.30055562
0.54593883
0.47123032
0.31984412
0.27377614
0.54588774
0.47166558
0.54514492
0.47138114
0.54577104
0.04313961
0.048459592
0.04299905
0.043654319
0.099086379
0.17004856
0.046018846
0.056963629
0.034930609
0.11143701
0.19370979
0.049180862
0.057041139
0.039141439
0.043139826
0.048483646
0.042999146
0.043654319
0.068219131
0.51076945
0.29567777
0.10959428
0.1059972
0.11265442
0.51462615
0.51522669
0.11043762
0.11076285
0.1107688
0.11076826
0.11076892
0.1107669
0.012179283
0.055012191
0.033741046
0.055323859
0.0553492
0.055318156
0.055352801
0.051390149
0.033029009
0.075774841
0.045050413
0.11565711
0.11565938
0.11072887
0.11461678
0.12079895
0.52054446
0.52075826
0.52074985
0.12080384
0.52076162
0.11989726
0.30569397
0.51520497
0.52070905
0.12073431
0.51973291
0.11561672
0.11553779
0.055300764
0.053223642
0.047699754
0.23832176
0.47060284
0.23832368
0.23831786
0.47059661
0.23812937
0.237653
0.46904043
0.23832498
0.23477056
0.4648147
0.13360399
0.17170253
0.17147389
0.17170141
0.17165866
0.35862482
0.35255304
0.10408837
0.51980611
0.45380555
0.077788986
0.33886586
0.35915318
0.35943291
0.35943887
0.35943906
0.14840855
0.3051429
0.20219657
0.40795478
0.23755031
0.16493682
0.17151924
0.34079365
0.35841272
0.35943113
0.35908528
0.26393363
0.058947782
0.21657688
0.061494055
0.073446345
0.065673244
0.42457504
0.26398922
0.26028263
0.060634336
0.26026036
0.072598938
0.071476016
0.0633775
0.070745078
0.066833064
0.058007648
0.060699393
0.056799361
0.072599187
0.07147966
0.063150261
0.070745081
0.47476082
0.47632772
0.47484229
0.47633514
0.11968721
0.52067124
0.51603559
0.12434553
0.11618963
0.50024681
0.47611388
0.47012238
0.11202635
0.47986841
0.49793211
0.47167851
0.47637664
0.4762374
0.47655218
0.47160205
0.47577884
0.47475162
0.4759184
0.11076871
0.11076872
0.11076859
0.11076819
0.47651807
0.46548516
0.47651809
0.46548601
0.46541134
0.47646532
0.47651784
0.46548574
0.12080504
0.52073956
0.5207625
0.52073393
0.12080457
0.52076246
0.098763079
0.10352996
0.44824505
0.4428205
0.52059832
0.11598166
0.4982675
0.46522295
0.47632147
0.46900134
0.45966675
0.47651808
0.46548499
0.47651805
0.46548477
0.46548475
0.47651802
0.47651804
0.46548476
0.47651802
0.46548475
0.47651802
0.46548476
0.46548475
0.47651802
0.47651802
0.46548476
0.18492269
0.19497871
0.17932051
0.17194941
0.35862516
0.3525533
0.10408838
0.51980611
0.45380566
0.077789031
0.33886609
0.35915355
0.35943329
0.35943914
0.35943942
0.14840863
0.30514306
0.16493697
0.1715743
0.20219661
0.40795485
0.23755031
0.34079383
0.35841292
0.35943138
0.35908549
0.051390151
0.03302898
0.075774843
0.045050413
0.012179264
0.055012084
0.03374099
0.05532375
0.055349091
0.055318048
0.055352693
0.12079895
0.52054446
0.52075826
0.52074981
0.12080384
0.52076162
0.11988121
0.30573936
0.51520278
0.52070892
0.12072544
0.51973077
0.11565688
0.11565914
0.11075903
0.11462046
0.23832176
0.47060284
0.23832368
0.23831786
0.47059661
0.23812937
0.237653
0.46904043
0.23832498
0.23477056
0.46481469
0.13360383
0.11561649
0.11553756
0.055300656
0.053223538
0.047699661
0.10563413
0.10563552
0.023298767
0.06448921
0.10926775
0.10974505
0.10942604
0.10975037
0.064325626
0.1053577
0.10856626
0.10562665
0.11553315
0.11526718
0.34772273
0.34771417
0.34405113
0.34106587
0.10203983
0.11072226
0.092066065
0.098221015
0.47424425
0.46021894
0.47255425
0.45883643
0.26150631
0.27086674
0.46678728
0.45501238
0.47436778
0.46041492
0.47441308
0.46049256
0.47396564
0.46008457
0.47440527
0.46048535
0.33735564
0.19491338
0.1081774
0.092001145
0.068826368
0.34077287
0.34147913
0.34115252
0.34147554
0.22599733
0.29961717
0.30515683
0.35776169
0.35913737
0.35893763
0.29243055
0.29842537
0.47269906
0.45906714
0.40080616
0.39906775
0.34047147
0.32562708
0.35855241
0.33891346
0.068644113
0.072246788
0.07258297
0.072444936
0.061148767
0.06864884
0.072482269
0.070071137
0.24185669
0.2393954
0.40375049
0.25129203
0.10852605
0.10464977
0.025595423
0.10197062
0.252047
0.22212894
0.064351368
0.08799281
0.4748425
0.47633041
0.474697
0.47631471
0.47623975
0.47669537
0.47617087
0.47669418
0.3927997
0.43477938
0.43477227
0.47594816
0.449793
0.10523247
0.11019993
0.44904862
0.44111214
0.4741625
0.46015155
0.46740522
0.45515194
0.44919455
0.45194446
0.44932274
0.45206843
0.45150576
0.44881884
0.44932521
0.45207095
0.10941191
0.10975219
0.10942597
0.10975233
0.091964373
0.091432292
0.44793989
0.44551037
0.2614595
0.26060835
0.10856966
0.10187621
0.47644286
0.4653997
0.47651771
0.46548562
0.46548517
0.47651808
0.47651812
0.46548606
0.47651802
0.46548475
0.47651804
0.46548476
0.46548499
0.47651808
0.47651805
0.46548477
0.47402825
0.46010103
0.44718849
0.43983416
0.44885909
0.45161732
0.43270488
0.43454465
0.47615116
0.46512872
0.44817109
0.44276978
0.39008835
0.39048043
0.39117517
0.47432965
0.46039089
0.47441531
0.46049375
0.47434414
0.4603939
0.47441539
0.46049397
0.33735328
0.19491317
0.10817739
0.092001101
0.068826322
0.34076962
0.34147485
0.34115124
0.34147165
0.22599757
0.29961727
0.30515721
0.35776232
0.35913798
0.35893827
0.29243102
0.29842573
0.34047105
0.32562765
0.35855301
0.33891393
0.47269906
0.45906714
0.40080636
0.39906789
0.10926775
0.10974505
0.10942604
0.10975037
0.064325565
0.1053577
0.10856626
0.10562665
0.1056339
0.1056353
0.023298728
0.064489093
0.34772273
0.34771417
0.34405113
0.34106587
0.11553292
0.11526695
0.47424425
0.46021894
0.47255425
0.45883643
0.26150599
0.27086643
0.46678726
0.45501237
0.47436778
0.46041492
0.47441308
0.46049256
0.47396564
0.46008457
0.47440527
0.46048535
0.10203961
0.11072205
0.092065866
0.098220823
0.54569046
0.51568785
0.51699649
0.34222282
0.54151699
0.5300731
0.46018112
0.54592012
0.5399997
0.54048048
0.3126712
0.11265028
0.54593644
0.54029128
0.53999964
0.54593649
0.53999747
0.53999715
0.54598812
0.54531964
0.54599852
0.54535218
0.27297351
0.27315551
0.27000418
0.26981111
0.27131343
0.33041497
0.54118069
0.50438674
0.47620862
0.33055204
0.54061121
0.50440191
0.45370548
0.5459365
0.53999715
0.53999746
0.5459365
0.53999746
0.53999745
0.54521855
0.52849167
0.52849114
0.31259402
0.11250541
0.54588844
0.54599259
0.54598196
0.54589344
0.5452185
0.52849172
0.52849172
0.54589346
0.54599259
0.54599259
0.54589346
0.54589346
0.54599259
0.54599259
0.54589344
0.5452185
0.52849168
0.52849168
0.54445971
0.53584753
0.50080648
0.27010021
0.27057843
0.27131636
0.54598812
0.54531965
0.54535218
0.54599852
0.27297511
0.27315576
0.54342911
0.54014241
0.544861
0.54593087
0.53902619
0.52249952
0.49298943
0.45175153
0.28811302
0.53882002
0.51573104
0.54371001
0.51582158
0.53995515
0.54591767
0.54012555
0.54574454
0.5452122
0.52843909
0.52849076
0.54589344
0.54599259
0.54589346
0.54599259
0.5452185
0.52849168
0.52849171
0.54589341
0.54586606
0.54599256
0.54577254
0.51547166
0.52818514
0.4973631
0.54014241
0.544861
0.53902618
0.54593087
0.54342911
0.52249951
0.19174066
0.066416801
0.07315282
0.17673752
0.13347996
0.23203723
0.14115257
0.22610228
0.13224541
0.22620148
0.22476819
0.13354196
0.1939362
0.24338125
0.17745223
0.27435561
0.24794066
0.17474469
0.13246496
0.22982164
0.1544675
0.058710686
0.056891458
0.15958549
0.16250214
0.23077135
0.16737228
0.22527527
0.25072188
0.17611154
0.14203777
0.24842096
0.13350325
0.23250399
0.14134155
0.22616467
0.13224743
0.22620182
0.22477389
0.13354208
0.27339233
0.24136461
0.10620618
0.091840817
0.28452091
0.16252806
0.061798258
0.16655962
0.059960312
0.29380829
0.46846774
0.49697014
0.10849082
0.31053736
0.53377277
0.31262549
0.30600114
0.5386486
0.54565617
0.53867152
0.11266473
0.31249238
0.54536605
0.5379603
0.53867146
0.31414759
0.50545108
0.31413944
0.50560242
0.31370236
0.31413602
0.11696018
0.12210126
0.1221626
0.48462538
0.27124746
0.50024124
0.4573387
0.31414685
0.50543357
0.3141472
0.50543332
0.31414801
0.31414746
0.3137115
0.50559451
0.31413628
0.50545052
0.31414755
0.31413954
0.1545472
0.15346455
0.092566974
0.26465438
0.17634885
0.23257917
0.14148222
0.25067862
0.54047897
0.54580938
0.54048725
0.12074996
0.32780158
0.32816852
0.1208122
0.5457814
0.54036713
0.54048623
0.54045304
0.54506629
0.53943342
0.10213101
0.19446526
0.32816824
0.12082114
0.5402171
0.31674469
0.53465247
0.26413534
0.26401017
0.2731762
0.27317659
0.26413727
0.26413757
0.26038779
0.15435866
0.26896762
0.14861753
0.27314883
0.27280308
0.26351416
0.26413763
0.16896999
0.23435749
0.23240207
0.17072954
0.2657539
0.26922614
0.23238033
0.23238184
0.23238091
0.23192997
0.24653261
0.4138759
0.35586891
0.29339869
0.51653716
0.11928514
0.32705588
0.31748903
0.11415531
0.11691112
0.30882067
0.47913771
0.53976769
0.47213641
0.54166247
0.53994972
0.47970099
0.4797012
0.53511606
0.47951783
0.539969
0.47969609
0.22507283
0.26351997
0.23245927
0.54477905
0.54000578
0.47969483
0.47945931
0.45650212
0.54041353
0.47892228
0.54241059
0.26784546
0.17925409
0.20193184
0.27034847
0.27341516
0.27037105
0.16455357
0.058818958
0.16065487
0.32952064
0.39609158
0.28643176
0.37530466
0.19779148
0.22125934
0.41515521
0.24058372
0.23521175
0.25772924
0.17582586
0.16826321
0.26399597
0.19752888
0.17582585
0.54223992
0.53015728
0.5277973
0.52800819
0.53666484
0.52773862
0.12894647
0.5254971
0.51969595
0.120725
0.32809175
0.07984643
0.078040305
0.54176315
0.54043676
0.5359261
0.50072021
0.52628736
0.5256153
0.51755291
0.49067151
0.52517563
0.31414692
0.50543339
0.31414721
0.50543336
0.31414731
0.31414722
0.31414804
0.50543332
0.31414748
0.50543356
0.31414726
0.31414725
0.52340672
0.54472319
0.52345462
0.54522026
0.52845956
0.52849079
0.54471985
0.52345728
0.52345582
0.54046865
0.54580833
0.54048749
0.12080831
0.32814279
0.32814165
0.12080585
0.54581147
0.54047551
0.54048751
0.54035541
0.52327943
0.51728611
0.53855218
0.52836277
0.52050948
0.027447823
0.027990307
0.32807387
0.12064367
0.54471991
0.52345715
0.52345722
0.5452185
0.52849168
0.52849171
0.5447199
0.52345735
0.52345726
0.52345714
0.54471991
0.52345713
0.5452185
0.52849168
0.52849168
0.54471991
0.52345714
0.52345713
0.2418367
0.10631835
0.091925154
0.28519192
0.16099032
0.05907822
0.16061993
0.059238249
0.33427479
0.46956993
0.50288808
0.16852137
0.23181284
0.23198629
0.16834397
0.26858449
0.27132114
0.23846678
0.23258491
0.24653269
0.41387593
0.35586892
0.29339879
0.24299688
0.25040579
0.51074656
0.11928514
0.32705587
0.31758852
0.11420966
0.11692441
0.30916924
0.47913785
0.53976769
0.47213653
0.54416886
0.47970112
0.53994974
0.47970135
0.54146467
0.47951798
0.53996902
0.47969625
0.2250729
0.23249413
0.26351997
0.54480281
0.47969495
0.54000579
0.47945941
0.54241239
0.45650221
0.54041354
0.47892238
0.17634885
0.23257919
0.14148223
0.25067862
0.1545472
0.15346437
0.26465436
0.092566886
0.54047896
0.54580938
0.54048725
0.12074996
0.32780158
0.32816831
0.12081217
0.5457814
0.54036713
0.54048623
0.54045302
0.54506626
0.53943283
0.10219187
0.19487273
0.3281675
0.12081981
0.54021693
0.31674744
0.53465121
0.26413534
0.26401017
0.2731762
0.27317661
0.26413727
0.26413757
0.26038778
0.15435848
0.26896761
0.14861736
0.27314883
0.27280308
0.26351416
0.26413763
0.11028651
0.10563064
0.54187624
0.11029882
0.10564732
0.27613942
0.10624089
0.10192976
0.50397669
0.31136177
0.31179253
0.50389504
0.3109479
0.31178022
0.53928441
0.31026187
0.30620447
0.5328502
0.18013945
0.3044792
0.53756432
0.12106942
0.11012936
0.10547027
0.53777501
0.29021783
0.51923161
0.54011316
0.30567349
0.51510439
0.52753156
0.54447146
0.52574125
0.52098046
0.54496312
0.51960168
0.54508737
0.5273556
0.52763755
0.54442975
0.52091056
0.52115989
0.52761263
0.54514109
0.52764086
0.52111309
0.54445855
0.52116324
0.46241249
0.3091315
0.26364779
0.2938075
0.53714616
0.46750901
0.46775596
0.27318848
0.46688386
0.53682697
0.46775823
0.53489089
0.53965763
0.47948874
0.47928152
0.53602123
0.40773277
0.53547649
0.47808423
0.52626648
0.46692329
0.44733363
0.52008844
0.47901795
0.45367098
0.39583309
0.23838842
0.22849279
0.34378168
0.18688673
0.20891476
0.29313543
0.38899834
0.2696248
0.26587312
0.27311663
0.26461242
0.51458056
0.07149128
0.29389701
0.53459492
0.31016281
0.30312536
0.27026233
0.2043494
0.23308784
0.53191537
0.52679844
0.52763775
0.5301114
0.54020645
0.52775195
0.53984673
0.52748729
0.52062969
0.54165476
0.52094347
0.51590321
0.11664358
0.51946958
0.50050846
0.12433283
0.52538747
0.50015209
0.5164905
0.54358328
0.51723323
0.54342046
0.51514522
0.51582242
0.54389828
0.51714613
0.51723244
0.50397754
0.31135284
0.31179709
0.50398346
0.31132849
0.31179682
0.51222074
0.31021851
0.29331214
0.31262468
0.51114813
0.29517436
0.52345729
0.54471959
0.52345584
0.545218
0.52849167
0.52849117
0.54471884
0.52339557
0.5234546
0.5447199
0.52345735
0.52345726
0.5452185
0.52849172
0.52849172
0.54471991
0.52345715
0.52345722
0.52733431
0.51689325
0.49783111
0.52087105
0.52317451
0.49813658
0.52760182
0.54514564
0.52764182
0.52110331
0.5444685
0.52116473
0.52758593
0.54513899
0.5276418
0.52109741
0.54446536
0.52116466
0.45514173
0.46241174
0.30913149
0.26364766
0.46750861
0.53714608
0.46775476
0.46688286
0.53682688
0.46775691
0.53241099
0.47948896
0.53965765
0.47928175
0.53509195
0.40773293
0.5354765
0.47808446
0.46692315
0.52626648
0.44733385
0.47901817
0.52008845
0.45367117
0.11696011
0.12210118
0.12216252
0.48462538
0.27124745
0.50397669
0.31136177
0.31179253
0.50389504
0.3109479
0.31178022
0.53928441
0.31026187
0.30620448
0.53285018
0.18013927
0.30447921
0.11028641
0.10563041
0.54187624
0.11029872
0.1056471
0.27613942
0.1062408
0.10192955
0.53756432
0.12106934
0.53777499
0.29021746
0.51923159
0.54011315
0.30567313
0.51510437
0.52753156
0.54447145
0.52574125
0.52098046
0.54496312
0.51960168
0.5273556
0.54508737
0.52763755
0.52091056
0.54442975
0.52115989
0.52761263
0.54514109
0.52764086
0.52111309
0.54445855
0.52116324
0.11012927
0.10547004
0.066459669
0.11265266
0.31270388
0.53583099
0.53550907
0.5253287
0.5339082
0.51038744
0.52692882
0.15443903
0.15448599
0.2688335
0.26879566
0.27334291
0.27254699
0.27245564
0.27313939
0.1543832
0.15449086
0.26754077
0.26878065
0.31984883
0.54023766
0.54023771
0.5402347
0.31985177
0.54023772
0.52346801
0.54505921
0.54498005
0.3197579
0.54023747
0.54021605
0.51869081
0.3195688
0.5401058
0.52496657
0.54478745
0.5249637
0.54448412
0.5271664
0.13022619
0.52554026
0.52555226
0.13022411
0.52555258
0.52555236
0.13022324
0.52555294
0.52555282
0.13022237
0.5255526
0.52555275
0.13022245
0.52555293
0.52555279
0.13022144
0.5255526
0.52555273
0.11191118
0.30223124
0.52717334
0.15443885
0.15448581
0.26883349
0.26879565
0.27334291
0.27254698
0.27245564
0.27313939
0.15438302
0.15449068
0.31984845
0.54023764
0.54023769
0.54023463
0.31985139
0.54023771
0.52346801
0.54505921
0.54498005
0.31975753
0.54023745
0.54021604
0.51869079
0.31956843
0.54010578
0.52496657
0.54478745
0.5249637
0.54448412
0.30073147
0.53784959
0.53786381
0.53714901
0.30073455
0.537864
0.46880472
0.54029211
0.54431313
0.31956561
0.54022384
0.54011413
0.4646573
0.31888378
0.53940877
0.4718655
0.53859983
0.53848887
0.4718591
0.53826075
0.12082355
0.51891272
0.51963213
0.12082266
0.51959672
0.51963119
0.13021966
0.52555257
0.52555255
0.13021969
0.52555256
0.52555254
0.13022415
0.52555257
0.5255524
0.130226
0.52552947
0.52555228
0.44864836
0.52135704
0.53583098
0.53550907
0.52532869
0.5339082
0.30073109
0.53784956
0.53786379
0.53714898
0.30073417
0.53786398
0.46880472
0.54029211
0.54431313
0.31956523
0.54022382
0.54011411
0.46465729
0.31888341
0.53940875
0.4718655
0.53859983
0.53848887
0.4718591
0.53826075
0.53845588
0.022967154
0.059888108
0.25247984
0.26436726
0.27009815
0.23962579
0.19774737
0.060264782
0.075669046
0.15773509
0.14335783
0.03786856
0.072186424
0.066831851
0.20129583
0.22389778
0.15844975
0.2901861
0.16362113
0.064296044
0.013494684
0.012872001
0.034189112
0.21706124
0.25629393
0.24725788
0.22465293
0.13681163
0.035747447
0.050567731
0.095882666
0.16213534
0.044062751
0.06100018
0.062933104
0.14529836
0.14573973
0.10321298
0.20384946
0.18597001
0.076199583
0.015625734
0.20082246
0.066988738
0.076890601
0.1780777
0.31466247
0.43271623
0.33399341
0.38954255
0.22781423
0.26057617
0.23118315
0.25901724
0.16251945
0.06183812
0.059956468
0.16665246
0.096456459
0.18641175
0.44491407
0.49226611
0.26174135
0.4312219
0.11265938
0.31270692
0.44801525
0.51517814
0.44844063
0.51522629
0.10312542
0.12214382
0.12216694
0.045841243
0.12078643
0.32814488
0.12080774
0.32815442
0.11575886
0.32532395
0.12082451
0.32782876
0.17430308
0.23832287
0.13040926
0.065170712
0.065171393
0.13042764
0.23832313
0.17430393
0.17429709
0.23830587
0.13028219
0.065080251
0.065167978
0.13042363
0.23826786
0.17409991
0.23822955
0.17390599
0.1303781
0.065171336
0.23831861
0.1743061
0.065055372
0.13011181
0.22388477
0.17188083
0.076533121
0.03635367
0.19359638
0.097440016
0.064331547
0.12904993
0.17170423
0.06490099
0.063616185
0.064341163
0.16895922
0.23431182
0.23238691
0.17074757
0.1716886
0.064823528
0.064900626
0.17170057
0.20126024
0.24354927
0.28546225
0.17813481
0.091926018
0.10941263
0.17169435
0.064886338
0.11551939
0.28369628
0.31781438
0.11352021
0.11686447
0.30915865
0.02999275
0.21223752
0.20395875
0.10180632
0.073946579
0.27829838
0.10919262
0.056281031
0.041237658
0.086592206
0.14776406
0.22670918
0.13000098
0.064890278
0.055339411
0.11369999
0.23518172
0.17361433
0.16994825
0.062386341
0.12459663
0.12015289
0.1711783
0.064832593
0.23004253
0.25871487
0.22684118
0.0588141
0.16463914
0.16064436
0.25870463
0.23008045
0.22682856
0.12053218
0.3250005
0.1048279
0.31515445
0.12080705
0.32815691
0.12080547
0.32815629
0.072862188
0.27301009
0.075075776
0.28017929
0.11979813
0.31449794
0.20089507
0.066986253
0.076906032
0.17808119
0.31634005
0.4415384
0.33943436
0.39225122
0.22659473
0.25816933
0.2262031
0.2585109
0.16222167
0.061814263
0.059809873
0.16661036
0.19015469
0.071485759
0.16889212
0.23430661
0.23233323
0.17073985
0.063407833
0.063329189
0.19360281
0.076651294
0.06871276
0.17509443
0.20126027
0.24354893
0.28546224
0.17813421
0.091926089
0.10941271
0.17284093
0.065043318
0.11551939
0.28369634
0.31783135
0.11352022
0.116866
0.30916035
0.02999278
0.21223764
0.20395893
0.10180637
0.073946686
0.27829857
0.10919268
0.056281081
0.04123768
0.086592252
0.16994912
0.062386435
0.12459672
0.12015298
0.17118606
0.064863843
0.14776409
0.22670919
0.13000098
0.064890277
0.05533942
0.11370001
0.23518173
0.17361433
0.04584123
0.12078643
0.32814488
0.12080773
0.32815442
0.11574674
0.32530018
0.12082079
0.32781412
0.17430308
0.23832287
0.13040926
0.065170712
0.065171393
0.13042764
0.23832313
0.17430393
0.17429709
0.23830587
0.13028219
0.06508025
0.065167978
0.13042363
0.23826786
0.17409991
0.23822955
0.17390599
0.1303781
0.065171336
0.23831861
0.1743061
0.065055372
0.13011181
0.17188083
0.22388474
0.076533033
0.036353627
0.064331547
0.12904993
0.1935963
0.097439902
0.30953831
0.1102889
0.1056335
0.3095454
0.11029411
0.10564033
0.30955858
0.30955697
0.29754051
0.094478777
0.090860696
0.26341212
0.11994898
0.30905121
0.10951418
0.10486035
0.30715527
0.19643929
0.24558371
0.2553425
0.18426909
0.17329219
0.23926529
0.17625596
0.23693619
0.2624437
0.40635087
0.34864986
0.29622395
0.15684054
0.22529272
0.21921844
0.16029244
0.054297759
0.053750894
0.16143375
0.22635557
0.16078453
0.22696193
0.10312535
0.12214374
0.12216686
0.30953818
0.11028881
0.10563327
0.30954526
0.11029401
0.1056401
0.30955845
0.30955684
0.29754038
0.094478697
0.090860519
0.263412
0.1199489
0.30905108
0.10951409
0.10486012
0.30715513
0.27293281
0.27337145
0.27268396
0.27309417
0.27295972
0.27284274
0.27337553
0.27311779
0.26431981
0.27281557
0.27169832
0.26976246
0.37558191
0.19752838
0.22132214
0.27338191
0.27339883
0.27348203
0.27316726
0.41544584
0.22132799
0.23529589
0.49427523
0.52651367
0.49791107
0.26932595
0.27155526
0.26355314
0.27269218
0.26051779
0.27103342
0.26145686
0.27037904
0.27279533
0.27306049
0.27246718
0.27337155
0.54507944
0.54598435
0.54508128
0.54598457
0.54508131
0.54508131
0.54594035
0.54508124
0.54506997
0.26471911
0.26379826
0.33506712
0.33862531
0.54273629
0.54180002
0.54587181
0.54179973
0.54179212
0.54587188
0.54179954
0.54587184
0.54180002
0.54180004
0.54180007
0.54587184
0.54180006
0.54180004
0.54587184
0.54180006
0.54180007
0.54587184
0.54180007
0.26354806
0.26362276
0.33379104
0.3332789
0.54406188
0.54507943
0.54598435
0.54508128
0.54598457
0.5450813
0.54508131
0.54594035
0.54508124
0.54506997
0.54375515
0.54561423
0.54453875
0.54453153
0.54592948
0.5445392
0.54506984
0.54559782
0.54498334
0.53994114
0.54572262
0.53996126
0.53915634
0.54540685
0.53996107
0.54180001
0.54587184
0.54180002
0.54180004
0.54587184
0.54180003
0.54178198
0.54586752
0.54179955
0.54180002
0.54587155
0.54179974
0.54375514
0.54561423
0.54453874
0.54453153
0.54592948
0.54453919
0.54506984
0.54559782
0.54498333
0.029291431
0.027505354
0.012751172
0.077705192
0.034498656
0.12144273
0.11822407
0.39134258
0.31892305
0.029291402
0.027505298
0.012751145
0.077705129
0.034498586
0.09076796
0.070895057
0.067306743
0.19080717
0.38315192
0.090767936
0.19080693
0.38315174
0.070894987
0.067306591
0.26299373
0.26111694
0.27112275
0.27108481
0.27342603
0.27342689
0.2731579
0.27313908
0.26119884
0.26061115
0.27115391
0.27101565
0.42537996
0.33930545
0.44503347
0.39359379
0.51197925
0.47464745
0.42555678
0.33857661
0.44386714
0.50307656
0.3801221
0.46852205
0.27200048
0.27346302
0.27342604
0.39097214
0.38042321
0.29916434
0.35627315