/*--------------------------------*- C++ -*----------------------------------*\
  =========                 |
  \\      /  F ield         | OpenFOAM: The Open Source CFD Toolbox
   \\    /   O peration     | Website:  https://openfoam.org
    \\  /    A nd           | Version:  8
     \\/     M anipulation  |
\*---------------------------------------------------------------------------*/
/*   Windows 32 and 64 bit porting by blueCAPE: http://www.bluecape.com.pt   *\
|  Based on Windows porting (2.0.x v4) by Symscape: http://www.symscape.com   |
\*---------------------------------------------------------------------------*/
FoamFile
{
    version     2.0;
    format      ascii;
    class       volScalarField;
    location    "0/vegetation";
    object      viewFactorField;
}
// * * * * * * * * * * * * * * * * * * * * * * * * * * * * * * * * * * * * * //

dimensions      [0 0 0 0 0 0 0];

internalField   uniform 0;

boundaryField
{
    left
    {
        type            calculated;
        value           nonuniform List<scalar> 0();
    }
    right
    {
        type            calculated;
        value           nonuniform List<scalar> 0();
    }
    back
    {
        type            calculated;
        value           uniform 1.0377345;
    }
    front
    {
        type            calculated;
        value           nonuniform List<scalar> 0();
    }
    bottom
    {
        type            calculated;
        value           nonuniform List<scalar> 
242
(
0.93504555
0.93504555
0.93504555
1.0681477
0.98857458
1.0681477
1.0584354
0.93504555
1.0584354
1.0055078
0.98857458
0.80807246
0.98857458
0.96549603
0.98857458
0.80807246
0.9659866
0.9659866
0.88733205
1.0348503
1.0055078
0.80807246
0.80807246
0.89850789
1.0031077
0.95043497
1.0031077
0.90081033
0.69733086
0.9659866
0.86093026
0.67446609
0.86093026
0.9659866
0.89850789
0.95043497
1.0323351
0.88000404
0.87249113
0.97213886
0.86093026
0.89320811
0.96549603
1.0348503
0.99228018
0.69733086
0.68781858
0.7525899
0.96549603
0.90081033
1.0031077
0.89320811
0.86093026
0.71054751
0.7525899
0.72078918
0.68739576
0.90081033
0.68739576
0.68739576
0.72078918
0.87370843
0.99228018
0.7987721
0.69742028
0.71254833
0.87370843
0.73706584
0.73706584
0.69733086
0.67446609
0.93377667
0.68739576
0.72078918
0.67416932
0.63993496
0.68781858
0.67416932
0.72078918
0.80595865
0.80595865
0.71054751
0.69902278
0.73706584
0.73693217
0.99228018
0.88000404
0.7987721
0.7987721
0.7987721
0.82119479
0.82119479
0.82119479
0.69733086
0.69902278
0.66521104
0.7525899
0.69742028
0.73102226
0.71054751
0.80595865
0.86093026
0.66521104
0.66521104
0.71054751
0.6846222
0.70554116
0.70554116
0.67416932
0.69902278
0.69902278
0.6846222
0.6846222
0.67416932
0.63993496
0.63993496
0.63993496
0.80595865
0.69197943
0.63993496
1.0323351
1.05003
1.05003
0.93142642
0.93142642
0.95043497
0.88733205
1.0323351
0.88733205
0.89850789
0.97213886
0.97213886
0.99228018
0.95043497
0.70554116
0.70554116
0.71254833
0.95043497
0.93142642
0.93142642
0.93377667
0.93377667
0.89850789
0.9659866
0.9659866
1.0348503
1.0055078
0.82119479
0.82119479
0.80807246
0.89850789
1.0323351
1.0323351
1.0031077
0.95043497
0.99323449
0.99323449
0.88733205
0.95505073
0.67446609
0.67446609
0.73706584
0.95505073
0.93377667
0.67446609
0.89850789
0.93377667
0.95505073
0.9659866
1.0323351
0.73102226
0.87249113
0.88000404
0.87249113
0.87249113
0.87249113
1.0348503
0.97213886
0.96549603
0.90081033
0.93109484
0.93109484
1.05003
0.93109484
0.93109484
0.89320811
0.7987721
0.7987721
0.88000404
0.82119479
0.7525899
0.73693217
0.73693217
0.73693217
0.69742028
0.71254833
0.6846222
0.71254833
0.71254833
0.71254833
0.67416932
0.68781858
0.68781858
0.68781858
0.68781858
0.67416932
0.69197943
0.69197943
0.80595865
0.71054751
0.66521104
0.69197943
0.7987721
0.7987721
0.7987721
0.73102226
0.73102226
0.69742028
0.88733205
0.99323449
0.99323449
0.99228018
0.99228018
0.99228018
1.0681477
1.0348503
1.0348503
1.0681477
1.0584354
1.0348503
1.0348503
1.0584354
1.0055078
1.05003
1.0055078
0.95505073
0.86093026
0.89320811
0.89320811
0.87370843
0.82119479
0.87370843
)
;
    }
    top
    {
        type            calculated;
        value           nonuniform List<scalar> 
85
(
0.97375344
1.0409537
0.99909071
0.99909071
1.0409537
0.99909071
1.0409537
1.0409537
1.0409537
1.0409537
1.0213117
1.0213117
0.97375344
0.99909071
1.0213117
0.99909071
0.97375344
1.0213117
1.0409537
0.97375344
0.97375344
0.99909071
0.99909071
0.99909071
0.99909071
1.0213117
1.0409537
1.0409537
1.0213117
0.97375344
0.99909071
0.99909071
0.97375344
0.99909071
0.99909071
0.99909071
0.99909071
1.0213117
1.0409537
0.97375344
0.97375344
0.97375344
0.99909071
0.99909071
1.0213117
0.99909071
0.99909071
0.97375344
0.97375344
0.97375344
1.0409537
1.0213117
0.99909071
0.99909071
1.0409537
1.0409537
1.0409537
1.0213117
1.0213117
1.0213117
1.0213117
1.0409537
0.99909071
0.99909071
0.99909071
0.99909071
1.0213117
1.0213117
1.0213117
0.99909071
0.99909071
0.99909071
1.0409537
1.0409537
1.0409537
0.97375344
0.97375344
0.97375344
0.97375344
0.97375344
0.99909071
1.0213117
1.0409537
1.0409537
1.0409537
)
;
    }
    tower
    {
        type            calculated;
        value           nonuniform List<scalar> 
422
(
0.90646084
0.94316391
0.96921603
0.91969106
0.84234726
0.98549347
0.94807957
0.97407489
0.99730588
0.9679467
0.99131673
0.97829625
0.96680587
0.97040611
0.88306921
0.9073928
0.92903589
1.0021306
0.92517694
0.92153075
0.92792255
0.93744395
0.88337101
0.88638937
0.82718462
0.82419862
0.92372397
1.0054523
0.98423858
0.98296735
0.93178157
0.94629407
0.95854755
0.91773644
0.95635558
0.99338723
0.99351975
0.99355458
0.98703887
0.96804352
0.96595886
0.9807704
0.96123665
0.97333689
0.84935687
0.93089326
0.93748033
0.94623193
0.84482011
0.79608701
0.7935673
0.92701677
0.98555402
0.94021229
0.93596324
0.95426619
0.95478439
0.9541787
0.99092046
0.9914005
1.021198
1.0166256
0.99316789
1.0051627
0.89770537
0.82968103
0.94360965
0.9241065
0.88048375
1.0131576
0.97914171
0.87166624
0.81255105
0.90867181
0.97495433
0.92940332
0.91436182
0.8529557
1.0102667
0.99451357
1.0410173
0.99533507
0.99508847
0.99051933
1.0041794
0.99554424
0.96440732
0.99344616
0.99481967
0.96500581
0.95409754
0.99365705
1.0433297
0.97813338
1.0448128
0.97970108
0.98096881
1.0042792
1.0488392
0.98008936
0.98118646
0.99891888
1.0189984
0.9941123
1.0398331
0.99354849
1.0442631
0.97745268
1.0504825
0.97502601
1.0442352
0.99372946
0.9741839
1.036035
0.84371779
0.96146787
0.99690018
0.93460522
1.0163603
0.96962771
1.0389931
1.0071457
0.9996759
1.0015019
1.0223131
1.0053405
1.0294743
0.94101053
0.85186196
0.8235322
0.8226932
0.84416056
0.9268694
0.83781006
0.95467359
0.97133296
1.0216866
0.88385974
0.95880218
0.96871764
0.98141075
0.980531
0.97651027
0.98457929
1.0112121
0.97852172
0.98013841
0.98162717
0.98203325
0.97780808
0.98082959
1.0243164
0.98090117
0.98060988
1.0310092
0.9806824
0.98071667
1.0560734
0.97973005
0.98042546
0.97980303
1.0554668
0.97934857
0.97941868
0.97925179
1.0526519
0.97786201
0.97789688
0.97873193
1.0513692
0.97723958
0.97724928
0.97669488
1.0593168
0.97506358
0.97587651
0.9749692
1.0718442
0.97429563
0.97340918
0.9741747
0.99547123
0.97271043
1.0689975
0.9907949
1.0595023
1.0570861
1.0519363
0.99119384
1.0220274
1.0500813
1.0477642
0.99289721
0.99954851
1.0324287
1.0081164
0.99342872
1.0118892
1.0249264
1.0261764
0.99466089
1.0330372
1.0326949
1.0122361
0.99490735
1.0167773
0.99145987
0.99447493
0.99641877
0.99159943
0.98858883
0.99428176
0.988601
0.95758625
0.97460573
0.9631754
0.99190509
0.9473041
0.96549208
0.96385176
0.98990526
0.96113934
1.012559
0.97173469
0.8274165
0.7807698
0.92315421
0.93003177
0.91023077
0.95425312
0.96242128
0.99399097
0.99482527
0.99501577
0.99511139
0.99477223
0.99510179
0.99503316
0.99523434
0.99192786
0.99461355
0.99460566
0.99428953
0.99268092
1.048679
1.0415079
1.0535064
1.0553256
1.0323686
1.0238256
1.0247753
1.0508116
1.028189
0.9876542
0.99357236
0.99381337
0.9935864
0.99244222
1.0452838
1.0475426
1.0446075
1.0461492
0.99433371
0.99236521
0.98236785
0.9425205
0.89219769
0.86323141
0.86843766
0.88413684
0.9552901
0.95547437
1.0224958
1.0306111
1.0338852
1.0291392
1.0112235
1.0177026
1.0111386
1.032492
0.98146994
0.93629588
0.99068747
1.0076871
0.96765652
0.90468245
0.90980715
0.93639786
0.98115958
0.98188153
0.9808686
0.98099172
0.97914449
0.97894208
0.97968007
0.98060877
0.98208949
0.97700948
0.97824538
1.003141
1.0013751
1.0031431
0.99387513
1.0055731
1.005758
0.91664611
0.93932964
0.75768871
0.87520151
0.77444677
0.83970485
0.95132947
0.92019684
0.9551627
0.85124867
0.9010338
0.8680864
1.0085462
0.98779055
1.0111692
1.017429
0.97442047
0.98188645
1.0233474
0.98035594
1.0484801
0.98042932
0.98006413
1.049239
0.98013788
0.97891379
1.0499648
0.97897763
0.97841975
1.0523301
0.97847236
0.9765569
1.0546291
0.97653444
0.97582545
1.0500618
0.97576652
0.97356194
1.0631514
0.97343177
0.99092276
0.97286566
1.06967
0.99349744
0.97274515
0.99065446
1.0711487
1.0532208
0.9917208
1.0333888
1.0105747
0.99225609
1.0429712
1.0150451
0.99390335
1.0165983
1.0165176
0.99434321
1.0236965
1.0278436
0.99506955
0.9907794
0.99642024
0.99452154
0.99053834
0.99024473
0.99373205
0.97611651
0.97869751
0.99303325
0.94248039
0.94519789
0.91144138
0.99437829
0.99472159
0.99480679
0.99474074
0.99414571
0.99363766
1.050051
1.0472016
1.0484105
1.0490615
1.0241305
0.99307213
0.99272566
1.0452999
1.0418781
0.99265092
0.88217225
0.89042976
0.88204097
1.0191727
1.0169329
0.99881721
1.0109011
0.93017854
0.93525918
0.90573563
0.87319488
0.98162288
0.98134201
0.9795981
0.98012732
0.97743065
1.0082363
1.0059637
1.0080259
0.91484735
0.77994801
0.81769112
0.96585586
0.97868224
0.87598622
1.0044922
1.0171493
0.97725633
)
;
    }
    air_to_vegetation
    {
        type            calculated;
        value           nonuniform List<scalar> 
385
(
0.59645787
0.59645787
1.1969696
0.94606127
1.1969696
0.98785402
0.96111232
0.96111232
0.96111232
0.96111232
0.96111232
0.96111232
1.1465724
1.1465724
1.1465724
1.1818337
1.1818337
1.1465724
1.1465724
0.96111232
0.96111232
0.59645787
0.96111232
0.59645787
0.59645787
1.0229357
1.0229357
0.59645787
1.0229357
1.0229357
1.1969696
0.94606127
0.94606127
1.1969696
1.1818337
0.98785402
0.98785402
1.1969696
0.98785402
0.96111232
0.96111232
0.96111232
0.96111232
1.1818337
1.1465724
1.1465724
1.1969696
1.1465724
1.1465724
1.1465724
1.1465724
1.1818337
1.1818337
1.1818337
1.1969696
1.1818337
1.1818337
1.1818337
1.1818337
1.1818337
0.96111232
1.1818337
1.1818337
0.96111232
1.1465724
1.1465724
1.1465724
1.1465724
1.1465724
1.1465724
1.1465724
1.1465724
1.1465724
1.1465724
1.1465724
0.96111232
0.96111232
0.96111232
0.96111232
0.59645787
0.94606127
1.1818337
1.0229357
1.1818337
0.59645787
0.98785402
1.1969696
1.1969696
0.94606127
0.94606127
0.94606127
0.94606127
0.94606127
0.94606127
1.1969696
1.1969696
1.1818337
1.1818337
1.1818337
0.98785402
0.98785402
0.94606127
0.94606127
0.94606127
0.94606127
0.94606127
0.94606127
1.1969696
1.1969696
1.1969696
0.98785402
0.98785402
1.1969696
1.1818337
1.0229357
1.0229357
1.0229357
0.59645787
0.59645787
0.59645787
0.59645787
0.59645787
0.59645787
0.94606127
0.94606127
0.94606127
0.59645787
0.59645787
0.59645787
0.59645787
0.59645787
0.59645787
0.94606127
0.59645787
0.96111232
0.59645787
0.96111232
0.96111232
0.59645787
0.59645787
0.59645787
1.0229357
1.0229357
1.0229357
1.0229357
1.0229357
1.0229357
1.0229357
1.0229357
1.1818337
1.1818337
1.0229357
0.59645787
0.59645787
0.59645787
0.59645787
0.59645787
0.98785402
0.98785402
0.98785402
0.59645787
0.59645787
0.59645787
1.0229357
0.59645787
1.0229357
1.0229357
1.0229357
1.1465724
1.1465724
1.1465724
1.1969696
1.1969696
0.94606127
0.94606127
0.94606127
0.94606127
0.94606127
0.94606127
0.94606127
1.1465724
0.94606127
0.94606127
0.94606127
0.94606127
0.94606127
0.94606127
0.94606127
0.94606127
0.94606127
0.94606127
0.94606127
1.1969696
1.1969696
1.1969696
1.1969696
1.1969696
1.1969696
1.1969696
1.1818337
1.1969696
1.1969696
1.1818337
1.1818337
1.1969696
1.1969696
1.1818337
0.98785402
0.98785402
0.98785402
0.98785402
0.98785402
0.98785402
1.1969696
1.1969696
1.1969696
1.1969696
1.1969696
1.1969696
0.98785402
0.98785402
0.98785402
0.98785402
1.1818337
1.1818337
1.1465724
0.59645787
1.1465724
1.1465724
0.94606127
0.94606127
0.94606127
0.94606127
0.59645787
0.96111232
0.96111232
0.96111232
0.96111232
1.1818337
0.59645787
0.94606127
1.0229357
0.59645787
0.94606127
0.94606127
1.1465724
0.94606127
0.94606127
0.96111232
0.96111232
0.96111232
0.59645787
0.96111232
0.96111232
1.1465724
1.1465724
1.1465724
1.1818337
1.1818337
1.1818337
1.1818337
1.1818337
1.1818337
1.1818337
1.1818337
1.1818337
1.1818337
1.1818337
1.1818337
1.1818337
1.1465724
1.1465724
1.1465724
1.1465724
1.1465724
1.1465724
0.96111232
0.96111232
1.1465724
0.96111232
1.1465724
0.96111232
0.94606127
0.94606127
1.1818337
0.59645787
0.59645787
1.1465724
1.1969696
0.94606127
1.1969696
1.1818337
0.98785402
0.94606127
1.1969696
1.1969696
1.1969696
0.98785402
1.1969696
0.98785402
1.1969696
1.0229357
1.1818337
1.0229357
0.96111232
1.1818337
0.96111232
1.1818337
1.0229357
1.1818337
1.0229357
1.0229357
0.59645787
0.59645787
0.59645787
0.59645787
0.59645787
0.59645787
0.96111232
0.96111232
0.59645787
1.1818337
1.0229357
1.0229357
1.0229357
0.59645787
0.98785402
1.0229357
1.1465724
0.94606127
1.1465724
1.1969696
0.94606127
0.94606127
1.1465724
1.1465724
0.94606127
0.94606127
0.94606127
0.94606127
0.94606127
0.94606127
0.94606127
0.94606127
0.94606127
0.94606127
0.94606127
0.94606127
0.94606127
0.94606127
0.94606127
0.94606127
1.1969696
1.1969696
1.1969696
1.1969696
1.1969696
1.1818337
1.1818337
1.1818337
0.98785402
0.98785402
0.98785402
0.98785402
0.98785402
1.1969696
1.1969696
1.1969696
1.1969696
1.1969696
1.1969696
0.98785402
1.1969696
0.98785402
1.1969696
1.1969696
0.98785402
0.98785402
1.1969696
0.98785402
1.0229357
1.0229357
1.1969696
1.1969696
0.98785402
)
;
    }
    procBoundary14to2
    {
        type            processor;
        value           uniform 0;
    }
    procBoundary14to12
    {
        type            processor;
        value           uniform 0;
    }
    procBoundary14to13
    {
        type            processor;
        value           uniform 0;
    }
    procBoundary14to17
    {
        type            processor;
        value           uniform 0;
    }
    procBoundary14to18
    {
        type            processor;
        value           uniform 0;
    }
}


// ************************************************************************* //
