# Probe 0 (95.584821 219.74108 1.8486891)
# Probe 1 (95.584821 217.85522 1.8486891)
# Probe 2 (95.584821 215.96936 1.8486891)
# Probe 3 (95.584821 214.0835 1.8486891)
# Probe 4 (95.584821 212.19764 1.8486891)
# Probe 5 (95.584821 210.31178 1.8486891)
# Probe 6 (95.584821 208.42593 1.8486891)
# Probe 7 (95.584821 206.54007 1.8486891)
# Probe 8 (95.584821 204.65421 1.8486891)
# Probe 9 (95.584821 202.76835 1.8486891)
# Probe 10 (95.584821 200.88249 1.8486891)
# Probe 11 (95.584821 198.99663 1.8486891)
# Probe 12 (95.584821 197.11077 1.8486891)
# Probe 13 (95.584821 195.22492 1.8486891)
# Probe 14 (95.584821 193.33906 1.8486891)
# Probe 15 (95.584821 191.4532 1.8486891)
# Probe 16 (95.584821 189.56734 1.8486891)
# Probe 17 (95.584821 187.68148 1.8486891)
# Probe 18 (95.584821 185.79562 1.8486891)
# Probe 19 (95.584821 183.90976 1.8486891)
# Probe 20 (95.584821 182.02391 1.8486891)
# Probe 21 (95.584821 180.13805 1.8486891)
# Probe 22 (95.584821 178.25219 1.8486891)
# Probe 23 (95.584821 176.36633 1.8486891)
# Probe 24 (95.584821 174.48047 1.8486891)
# Probe 25 (95.584821 172.59461 1.8486891)
# Probe 26 (95.584821 170.70875 1.8486891)
# Probe 27 (95.584821 168.8229 1.8486891)
# Probe 28 (95.584821 166.93704 1.8486891)
# Probe 29 (95.584821 165.05118 1.8486891)
# Probe 30 (95.584821 163.16532 1.8486891)
# Probe 31 (95.584821 161.27946 1.8486891)
# Probe 32 (96.349468 219.74108 1.8486891)
# Probe 33 (96.349468 217.85522 1.8486891)
# Probe 34 (96.349468 215.96936 1.8486891)
# Probe 35 (96.349468 214.0835 1.8486891)
# Probe 36 (96.349468 212.19764 1.8486891)
# Probe 37 (96.349468 210.31178 1.8486891)
# Probe 38 (96.349468 208.42593 1.8486891)
# Probe 39 (96.349468 206.54007 1.8486891)
# Probe 40 (96.349468 204.65421 1.8486891)
# Probe 41 (96.349468 202.76835 1.8486891)
# Probe 42 (96.349468 200.88249 1.8486891)
# Probe 43 (96.349468 198.99663 1.8486891)
# Probe 44 (96.349468 197.11077 1.8486891)
# Probe 45 (96.349468 195.22492 1.8486891)
# Probe 46 (96.349468 193.33906 1.8486891)
# Probe 47 (96.349468 191.4532 1.8486891)
# Probe 48 (96.349468 189.56734 1.8486891)
# Probe 49 (96.349468 187.68148 1.8486891)
# Probe 50 (96.349468 185.79562 1.8486891)
# Probe 51 (96.349468 183.90976 1.8486891)
# Probe 52 (96.349468 182.02391 1.8486891)
# Probe 53 (96.349468 180.13805 1.8486891)
# Probe 54 (96.349468 178.25219 1.8486891)
# Probe 55 (96.349468 176.36633 1.8486891)
# Probe 56 (96.349468 174.48047 1.8486891)
# Probe 57 (96.349468 172.59461 1.8486891)
# Probe 58 (96.349468 170.70875 1.8486891)
# Probe 59 (96.349468 168.8229 1.8486891)
# Probe 60 (96.349468 166.93704 1.8486891)
# Probe 61 (96.349468 165.05118 1.8486891)
# Probe 62 (96.349468 163.16532 1.8486891)
# Probe 63 (96.349468 161.27946 1.8486891)
# Probe 64 (97.114115 219.74108 1.8486891)
# Probe 65 (97.114115 217.85522 1.8486891)
# Probe 66 (97.114115 215.96936 1.8486891)
# Probe 67 (97.114115 214.0835 1.8486891)
# Probe 68 (97.114115 212.19764 1.8486891)
# Probe 69 (97.114115 210.31178 1.8486891)
# Probe 70 (97.114115 208.42593 1.8486891)
# Probe 71 (97.114115 206.54007 1.8486891)
# Probe 72 (97.114115 204.65421 1.8486891)
# Probe 73 (97.114115 202.76835 1.8486891)
# Probe 74 (97.114115 200.88249 1.8486891)
# Probe 75 (97.114115 198.99663 1.8486891)
# Probe 76 (97.114115 197.11077 1.8486891)
# Probe 77 (97.114115 195.22492 1.8486891)
# Probe 78 (97.114115 193.33906 1.8486891)
# Probe 79 (97.114115 191.4532 1.8486891)
# Probe 80 (97.114115 189.56734 1.8486891)
# Probe 81 (97.114115 187.68148 1.8486891)
# Probe 82 (97.114115 185.79562 1.8486891)
# Probe 83 (97.114115 183.90976 1.8486891)
# Probe 84 (97.114115 182.02391 1.8486891)
# Probe 85 (97.114115 180.13805 1.8486891)
# Probe 86 (97.114115 178.25219 1.8486891)
# Probe 87 (97.114115 176.36633 1.8486891)
# Probe 88 (97.114115 174.48047 1.8486891)
# Probe 89 (97.114115 172.59461 1.8486891)
# Probe 90 (97.114115 170.70875 1.8486891)
# Probe 91 (97.114115 168.8229 1.8486891)
# Probe 92 (97.114115 166.93704 1.8486891)
# Probe 93 (97.114115 165.05118 1.8486891)
# Probe 94 (97.114115 163.16532 1.8486891)
# Probe 95 (97.114115 161.27946 1.8486891)
# Probe 96 (97.878763 219.74108 1.8486891)
# Probe 97 (97.878763 217.85522 1.8486891)
# Probe 98 (97.878763 215.96936 1.8486891)
# Probe 99 (97.878763 214.0835 1.8486891)
# Probe 100 (97.878763 212.19764 1.8486891)
# Probe 101 (97.878763 210.31178 1.8486891)
# Probe 102 (97.878763 208.42593 1.8486891)
# Probe 103 (97.878763 206.54007 1.8486891)
# Probe 104 (97.878763 204.65421 1.8486891)
# Probe 105 (97.878763 202.76835 1.8486891)
# Probe 106 (97.878763 200.88249 1.8486891)
# Probe 107 (97.878763 198.99663 1.8486891)
# Probe 108 (97.878763 197.11077 1.8486891)
# Probe 109 (97.878763 195.22492 1.8486891)
# Probe 110 (97.878763 193.33906 1.8486891)
# Probe 111 (97.878763 191.4532 1.8486891)
# Probe 112 (97.878763 189.56734 1.8486891)
# Probe 113 (97.878763 187.68148 1.8486891)
# Probe 114 (97.878763 185.79562 1.8486891)
# Probe 115 (97.878763 183.90976 1.8486891)
# Probe 116 (97.878763 182.02391 1.8486891)
# Probe 117 (97.878763 180.13805 1.8486891)
# Probe 118 (97.878763 178.25219 1.8486891)
# Probe 119 (97.878763 176.36633 1.8486891)
# Probe 120 (97.878763 174.48047 1.8486891)
# Probe 121 (97.878763 172.59461 1.8486891)
# Probe 122 (97.878763 170.70875 1.8486891)
# Probe 123 (97.878763 168.8229 1.8486891)
# Probe 124 (97.878763 166.93704 1.8486891)
# Probe 125 (97.878763 165.05118 1.8486891)
# Probe 126 (97.878763 163.16532 1.8486891)
# Probe 127 (97.878763 161.27946 1.8486891)
# Probe 128 (98.64341 219.74108 1.8486891)
# Probe 129 (98.64341 217.85522 1.8486891)
# Probe 130 (98.64341 215.96936 1.8486891)
# Probe 131 (98.64341 214.0835 1.8486891)
# Probe 132 (98.64341 212.19764 1.8486891)
# Probe 133 (98.64341 210.31178 1.8486891)
# Probe 134 (98.64341 208.42593 1.8486891)
# Probe 135 (98.64341 206.54007 1.8486891)
# Probe 136 (98.64341 204.65421 1.8486891)
# Probe 137 (98.64341 202.76835 1.8486891)
# Probe 138 (98.64341 200.88249 1.8486891)
# Probe 139 (98.64341 198.99663 1.8486891)
# Probe 140 (98.64341 197.11077 1.8486891)
# Probe 141 (98.64341 195.22492 1.8486891)
# Probe 142 (98.64341 193.33906 1.8486891)
# Probe 143 (98.64341 191.4532 1.8486891)
# Probe 144 (98.64341 189.56734 1.8486891)
# Probe 145 (98.64341 187.68148 1.8486891)
# Probe 146 (98.64341 185.79562 1.8486891)
# Probe 147 (98.64341 183.90976 1.8486891)
# Probe 148 (98.64341 182.02391 1.8486891)
# Probe 149 (98.64341 180.13805 1.8486891)
# Probe 150 (98.64341 178.25219 1.8486891)
# Probe 151 (98.64341 176.36633 1.8486891)
# Probe 152 (98.64341 174.48047 1.8486891)
# Probe 153 (98.64341 172.59461 1.8486891)
# Probe 154 (98.64341 170.70875 1.8486891)
# Probe 155 (98.64341 168.8229 1.8486891)
# Probe 156 (98.64341 166.93704 1.8486891)
# Probe 157 (98.64341 165.05118 1.8486891)
# Probe 158 (98.64341 163.16532 1.8486891)
# Probe 159 (98.64341 161.27946 1.8486891)
# Probe 160 (99.408058 219.74108 1.8486891)
# Probe 161 (99.408058 217.85522 1.8486891)
# Probe 162 (99.408058 215.96936 1.8486891)
# Probe 163 (99.408058 214.0835 1.8486891)
# Probe 164 (99.408058 212.19764 1.8486891)
# Probe 165 (99.408058 210.31178 1.8486891)
# Probe 166 (99.408058 208.42593 1.8486891)
# Probe 167 (99.408058 206.54007 1.8486891)
# Probe 168 (99.408058 204.65421 1.8486891)
# Probe 169 (99.408058 202.76835 1.8486891)
# Probe 170 (99.408058 200.88249 1.8486891)
# Probe 171 (99.408058 198.99663 1.8486891)
# Probe 172 (99.408058 197.11077 1.8486891)
# Probe 173 (99.408058 195.22492 1.8486891)
# Probe 174 (99.408058 193.33906 1.8486891)
# Probe 175 (99.408058 191.4532 1.8486891)
# Probe 176 (99.408058 189.56734 1.8486891)
# Probe 177 (99.408058 187.68148 1.8486891)
# Probe 178 (99.408058 185.79562 1.8486891)
# Probe 179 (99.408058 183.90976 1.8486891)
# Probe 180 (99.408058 182.02391 1.8486891)
# Probe 181 (99.408058 180.13805 1.8486891)
# Probe 182 (99.408058 178.25219 1.8486891)
# Probe 183 (99.408058 176.36633 1.8486891)
# Probe 184 (99.408058 174.48047 1.8486891)
# Probe 185 (99.408058 172.59461 1.8486891)
# Probe 186 (99.408058 170.70875 1.8486891)
# Probe 187 (99.408058 168.8229 1.8486891)
# Probe 188 (99.408058 166.93704 1.8486891)
# Probe 189 (99.408058 165.05118 1.8486891)
# Probe 190 (99.408058 163.16532 1.8486891)
# Probe 191 (99.408058 161.27946 1.8486891)
# Probe 192 (100.17271 219.74108 1.8486891)
# Probe 193 (100.17271 217.85522 1.8486891)
# Probe 194 (100.17271 215.96936 1.8486891)
# Probe 195 (100.17271 214.0835 1.8486891)
# Probe 196 (100.17271 212.19764 1.8486891)
# Probe 197 (100.17271 210.31178 1.8486891)
# Probe 198 (100.17271 208.42593 1.8486891)
# Probe 199 (100.17271 206.54007 1.8486891)
# Probe 200 (100.17271 204.65421 1.8486891)
# Probe 201 (100.17271 202.76835 1.8486891)
# Probe 202 (100.17271 200.88249 1.8486891)
# Probe 203 (100.17271 198.99663 1.8486891)
# Probe 204 (100.17271 197.11077 1.8486891)
# Probe 205 (100.17271 195.22492 1.8486891)
# Probe 206 (100.17271 193.33906 1.8486891)
# Probe 207 (100.17271 191.4532 1.8486891)
# Probe 208 (100.17271 189.56734 1.8486891)
# Probe 209 (100.17271 187.68148 1.8486891)
# Probe 210 (100.17271 185.79562 1.8486891)
# Probe 211 (100.17271 183.90976 1.8486891)
# Probe 212 (100.17271 182.02391 1.8486891)
# Probe 213 (100.17271 180.13805 1.8486891)
# Probe 214 (100.17271 178.25219 1.8486891)
# Probe 215 (100.17271 176.36633 1.8486891)
# Probe 216 (100.17271 174.48047 1.8486891)
# Probe 217 (100.17271 172.59461 1.8486891)
# Probe 218 (100.17271 170.70875 1.8486891)
# Probe 219 (100.17271 168.8229 1.8486891)
# Probe 220 (100.17271 166.93704 1.8486891)
# Probe 221 (100.17271 165.05118 1.8486891)
# Probe 222 (100.17271 163.16532 1.8486891)
# Probe 223 (100.17271 161.27946 1.8486891)
# Probe 224 (100.93735 219.74108 1.8486891)
# Probe 225 (100.93735 217.85522 1.8486891)
# Probe 226 (100.93735 215.96936 1.8486891)
# Probe 227 (100.93735 214.0835 1.8486891)
# Probe 228 (100.93735 212.19764 1.8486891)
# Probe 229 (100.93735 210.31178 1.8486891)
# Probe 230 (100.93735 208.42593 1.8486891)
# Probe 231 (100.93735 206.54007 1.8486891)
# Probe 232 (100.93735 204.65421 1.8486891)
# Probe 233 (100.93735 202.76835 1.8486891)
# Probe 234 (100.93735 200.88249 1.8486891)
# Probe 235 (100.93735 198.99663 1.8486891)
# Probe 236 (100.93735 197.11077 1.8486891)
# Probe 237 (100.93735 195.22492 1.8486891)
# Probe 238 (100.93735 193.33906 1.8486891)
# Probe 239 (100.93735 191.4532 1.8486891)
# Probe 240 (100.93735 189.56734 1.8486891)
# Probe 241 (100.93735 187.68148 1.8486891)
# Probe 242 (100.93735 185.79562 1.8486891)
# Probe 243 (100.93735 183.90976 1.8486891)
# Probe 244 (100.93735 182.02391 1.8486891)
# Probe 245 (100.93735 180.13805 1.8486891)
# Probe 246 (100.93735 178.25219 1.8486891)
# Probe 247 (100.93735 176.36633 1.8486891)
# Probe 248 (100.93735 174.48047 1.8486891)
# Probe 249 (100.93735 172.59461 1.8486891)
# Probe 250 (100.93735 170.70875 1.8486891)
# Probe 251 (100.93735 168.8229 1.8486891)
# Probe 252 (100.93735 166.93704 1.8486891)
# Probe 253 (100.93735 165.05118 1.8486891)
# Probe 254 (100.93735 163.16532 1.8486891)
# Probe 255 (100.93735 161.27946 1.8486891)
# Probe 256 (101.702 219.74108 1.8486891)
# Probe 257 (101.702 217.85522 1.8486891)
# Probe 258 (101.702 215.96936 1.8486891)
# Probe 259 (101.702 214.0835 1.8486891)
# Probe 260 (101.702 212.19764 1.8486891)
# Probe 261 (101.702 210.31178 1.8486891)
# Probe 262 (101.702 208.42593 1.8486891)
# Probe 263 (101.702 206.54007 1.8486891)
# Probe 264 (101.702 204.65421 1.8486891)
# Probe 265 (101.702 202.76835 1.8486891)
# Probe 266 (101.702 200.88249 1.8486891)
# Probe 267 (101.702 198.99663 1.8486891)
# Probe 268 (101.702 197.11077 1.8486891)
# Probe 269 (101.702 195.22492 1.8486891)
# Probe 270 (101.702 193.33906 1.8486891)
# Probe 271 (101.702 191.4532 1.8486891)
# Probe 272 (101.702 189.56734 1.8486891)
# Probe 273 (101.702 187.68148 1.8486891)
# Probe 274 (101.702 185.79562 1.8486891)
# Probe 275 (101.702 183.90976 1.8486891)
# Probe 276 (101.702 182.02391 1.8486891)
# Probe 277 (101.702 180.13805 1.8486891)
# Probe 278 (101.702 178.25219 1.8486891)
# Probe 279 (101.702 176.36633 1.8486891)
# Probe 280 (101.702 174.48047 1.8486891)
# Probe 281 (101.702 172.59461 1.8486891)
# Probe 282 (101.702 170.70875 1.8486891)
# Probe 283 (101.702 168.8229 1.8486891)
# Probe 284 (101.702 166.93704 1.8486891)
# Probe 285 (101.702 165.05118 1.8486891)
# Probe 286 (101.702 163.16532 1.8486891)
# Probe 287 (101.702 161.27946 1.8486891)
# Probe 288 (102.46665 219.74108 1.8486891)
# Probe 289 (102.46665 217.85522 1.8486891)
# Probe 290 (102.46665 215.96936 1.8486891)
# Probe 291 (102.46665 214.0835 1.8486891)
# Probe 292 (102.46665 212.19764 1.8486891)
# Probe 293 (102.46665 210.31178 1.8486891)
# Probe 294 (102.46665 208.42593 1.8486891)
# Probe 295 (102.46665 206.54007 1.8486891)
# Probe 296 (102.46665 204.65421 1.8486891)
# Probe 297 (102.46665 202.76835 1.8486891)
# Probe 298 (102.46665 200.88249 1.8486891)
# Probe 299 (102.46665 198.99663 1.8486891)
# Probe 300 (102.46665 197.11077 1.8486891)
# Probe 301 (102.46665 195.22492 1.8486891)
# Probe 302 (102.46665 193.33906 1.8486891)
# Probe 303 (102.46665 191.4532 1.8486891)
# Probe 304 (102.46665 189.56734 1.8486891)
# Probe 305 (102.46665 187.68148 1.8486891)
# Probe 306 (102.46665 185.79562 1.8486891)
# Probe 307 (102.46665 183.90976 1.8486891)
# Probe 308 (102.46665 182.02391 1.8486891)
# Probe 309 (102.46665 180.13805 1.8486891)
# Probe 310 (102.46665 178.25219 1.8486891)
# Probe 311 (102.46665 176.36633 1.8486891)
# Probe 312 (102.46665 174.48047 1.8486891)
# Probe 313 (102.46665 172.59461 1.8486891)
# Probe 314 (102.46665 170.70875 1.8486891)
# Probe 315 (102.46665 168.8229 1.8486891)
# Probe 316 (102.46665 166.93704 1.8486891)
# Probe 317 (102.46665 165.05118 1.8486891)
# Probe 318 (102.46665 163.16532 1.8486891)
# Probe 319 (102.46665 161.27946 1.8486891)
# Probe 320 (103.23129 219.74108 1.8486891)
# Probe 321 (103.23129 217.85522 1.8486891)
# Probe 322 (103.23129 215.96936 1.8486891)
# Probe 323 (103.23129 214.0835 1.8486891)
# Probe 324 (103.23129 212.19764 1.8486891)
# Probe 325 (103.23129 210.31178 1.8486891)
# Probe 326 (103.23129 208.42593 1.8486891)
# Probe 327 (103.23129 206.54007 1.8486891)
# Probe 328 (103.23129 204.65421 1.8486891)
# Probe 329 (103.23129 202.76835 1.8486891)
# Probe 330 (103.23129 200.88249 1.8486891)
# Probe 331 (103.23129 198.99663 1.8486891)
# Probe 332 (103.23129 197.11077 1.8486891)
# Probe 333 (103.23129 195.22492 1.8486891)
# Probe 334 (103.23129 193.33906 1.8486891)
# Probe 335 (103.23129 191.4532 1.8486891)
# Probe 336 (103.23129 189.56734 1.8486891)
# Probe 337 (103.23129 187.68148 1.8486891)
# Probe 338 (103.23129 185.79562 1.8486891)
# Probe 339 (103.23129 183.90976 1.8486891)
# Probe 340 (103.23129 182.02391 1.8486891)
# Probe 341 (103.23129 180.13805 1.8486891)
# Probe 342 (103.23129 178.25219 1.8486891)
# Probe 343 (103.23129 176.36633 1.8486891)
# Probe 344 (103.23129 174.48047 1.8486891)
# Probe 345 (103.23129 172.59461 1.8486891)
# Probe 346 (103.23129 170.70875 1.8486891)
# Probe 347 (103.23129 168.8229 1.8486891)
# Probe 348 (103.23129 166.93704 1.8486891)
# Probe 349 (103.23129 165.05118 1.8486891)
# Probe 350 (103.23129 163.16532 1.8486891)
# Probe 351 (103.23129 161.27946 1.8486891)
# Probe 352 (103.99594 219.74108 1.8486891)
# Probe 353 (103.99594 217.85522 1.8486891)
# Probe 354 (103.99594 215.96936 1.8486891)
# Probe 355 (103.99594 214.0835 1.8486891)
# Probe 356 (103.99594 212.19764 1.8486891)
# Probe 357 (103.99594 210.31178 1.8486891)
# Probe 358 (103.99594 208.42593 1.8486891)
# Probe 359 (103.99594 206.54007 1.8486891)
# Probe 360 (103.99594 204.65421 1.8486891)
# Probe 361 (103.99594 202.76835 1.8486891)
# Probe 362 (103.99594 200.88249 1.8486891)
# Probe 363 (103.99594 198.99663 1.8486891)
# Probe 364 (103.99594 197.11077 1.8486891)
# Probe 365 (103.99594 195.22492 1.8486891)
# Probe 366 (103.99594 193.33906 1.8486891)
# Probe 367 (103.99594 191.4532 1.8486891)
# Probe 368 (103.99594 189.56734 1.8486891)
# Probe 369 (103.99594 187.68148 1.8486891)
# Probe 370 (103.99594 185.79562 1.8486891)
# Probe 371 (103.99594 183.90976 1.8486891)
# Probe 372 (103.99594 182.02391 1.8486891)
# Probe 373 (103.99594 180.13805 1.8486891)
# Probe 374 (103.99594 178.25219 1.8486891)
# Probe 375 (103.99594 176.36633 1.8486891)
# Probe 376 (103.99594 174.48047 1.8486891)
# Probe 377 (103.99594 172.59461 1.8486891)
# Probe 378 (103.99594 170.70875 1.8486891)
# Probe 379 (103.99594 168.8229 1.8486891)
# Probe 380 (103.99594 166.93704 1.8486891)
# Probe 381 (103.99594 165.05118 1.8486891)
# Probe 382 (103.99594 163.16532 1.8486891)
# Probe 383 (103.99594 161.27946 1.8486891)
# Probe 384 (104.76059 219.74108 1.8486891)
# Probe 385 (104.76059 217.85522 1.8486891)
# Probe 386 (104.76059 215.96936 1.8486891)
# Probe 387 (104.76059 214.0835 1.8486891)
# Probe 388 (104.76059 212.19764 1.8486891)
# Probe 389 (104.76059 210.31178 1.8486891)
# Probe 390 (104.76059 208.42593 1.8486891)
# Probe 391 (104.76059 206.54007 1.8486891)
# Probe 392 (104.76059 204.65421 1.8486891)
# Probe 393 (104.76059 202.76835 1.8486891)
# Probe 394 (104.76059 200.88249 1.8486891)
# Probe 395 (104.76059 198.99663 1.8486891)
# Probe 396 (104.76059 197.11077 1.8486891)
# Probe 397 (104.76059 195.22492 1.8486891)
# Probe 398 (104.76059 193.33906 1.8486891)
# Probe 399 (104.76059 191.4532 1.8486891)
# Probe 400 (104.76059 189.56734 1.8486891)
# Probe 401 (104.76059 187.68148 1.8486891)
# Probe 402 (104.76059 185.79562 1.8486891)
# Probe 403 (104.76059 183.90976 1.8486891)
# Probe 404 (104.76059 182.02391 1.8486891)
# Probe 405 (104.76059 180.13805 1.8486891)
# Probe 406 (104.76059 178.25219 1.8486891)
# Probe 407 (104.76059 176.36633 1.8486891)
# Probe 408 (104.76059 174.48047 1.8486891)
# Probe 409 (104.76059 172.59461 1.8486891)
# Probe 410 (104.76059 170.70875 1.8486891)
# Probe 411 (104.76059 168.8229 1.8486891)
# Probe 412 (104.76059 166.93704 1.8486891)
# Probe 413 (104.76059 165.05118 1.8486891)
# Probe 414 (104.76059 163.16532 1.8486891)
# Probe 415 (104.76059 161.27946 1.8486891)
# Probe 416 (105.52524 219.74108 1.8486891)
# Probe 417 (105.52524 217.85522 1.8486891)
# Probe 418 (105.52524 215.96936 1.8486891)
# Probe 419 (105.52524 206.54007 1.8486891)
# Probe 420 (105.52524 204.65421 1.8486891)
# Probe 421 (105.52524 202.76835 1.8486891)
# Probe 422 (105.52524 200.88249 1.8486891)
# Probe 423 (105.52524 198.99663 1.8486891)
# Probe 424 (105.52524 197.11077 1.8486891)
# Probe 425 (105.52524 195.22492 1.8486891)
# Probe 426 (105.52524 193.33906 1.8486891)
# Probe 427 (105.52524 185.79562 1.8486891)
# Probe 428 (105.52524 183.90976 1.8486891)
# Probe 429 (105.52524 182.02391 1.8486891)
# Probe 430 (105.52524 180.13805 1.8486891)
# Probe 431 (105.52524 178.25219 1.8486891)
# Probe 432 (105.52524 176.36633 1.8486891)
# Probe 433 (105.52524 174.48047 1.8486891)
# Probe 434 (105.52524 165.05118 1.8486891)
# Probe 435 (105.52524 163.16532 1.8486891)
# Probe 436 (105.52524 161.27946 1.8486891)
# Probe 437 (106.28988 219.74108 1.8486891)
# Probe 438 (106.28988 217.85522 1.8486891)
# Probe 439 (106.28988 215.96936 1.8486891)
# Probe 440 (106.28988 206.54007 1.8486891)
# Probe 441 (106.28988 204.65421 1.8486891)
# Probe 442 (106.28988 202.76835 1.8486891)
# Probe 443 (106.28988 200.88249 1.8486891)
# Probe 444 (106.28988 198.99663 1.8486891)
# Probe 445 (106.28988 197.11077 1.8486891)
# Probe 446 (106.28988 195.22492 1.8486891)
# Probe 447 (106.28988 193.33906 1.8486891)
# Probe 448 (106.28988 185.79562 1.8486891)
# Probe 449 (106.28988 183.90976 1.8486891)
# Probe 450 (106.28988 182.02391 1.8486891)
# Probe 451 (106.28988 180.13805 1.8486891)
# Probe 452 (106.28988 178.25219 1.8486891)
# Probe 453 (106.28988 176.36633 1.8486891)
# Probe 454 (106.28988 174.48047 1.8486891)
# Probe 455 (106.28988 165.05118 1.8486891)
# Probe 456 (106.28988 163.16532 1.8486891)
# Probe 457 (106.28988 161.27946 1.8486891)
# Probe 458 (107.05453 219.74108 1.8486891)
# Probe 459 (107.05453 217.85522 1.8486891)
# Probe 460 (107.05453 215.96936 1.8486891)
# Probe 461 (107.05453 206.54007 1.8486891)
# Probe 462 (107.05453 204.65421 1.8486891)
# Probe 463 (107.05453 202.76835 1.8486891)
# Probe 464 (107.05453 200.88249 1.8486891)
# Probe 465 (107.05453 198.99663 1.8486891)
# Probe 466 (107.05453 197.11077 1.8486891)
# Probe 467 (107.05453 195.22492 1.8486891)
# Probe 468 (107.05453 193.33906 1.8486891)
# Probe 469 (107.05453 185.79562 1.8486891)
# Probe 470 (107.05453 183.90976 1.8486891)
# Probe 471 (107.05453 182.02391 1.8486891)
# Probe 472 (107.05453 180.13805 1.8486891)
# Probe 473 (107.05453 178.25219 1.8486891)
# Probe 474 (107.05453 176.36633 1.8486891)
# Probe 475 (107.05453 174.48047 1.8486891)
# Probe 476 (107.05453 165.05118 1.8486891)
# Probe 477 (107.05453 163.16532 1.8486891)
# Probe 478 (107.05453 161.27946 1.8486891)
# Probe 479 (107.81918 219.74108 1.8486891)
# Probe 480 (107.81918 217.85522 1.8486891)
# Probe 481 (107.81918 215.96936 1.8486891)
# Probe 482 (107.81918 206.54007 1.8486891)
# Probe 483 (107.81918 204.65421 1.8486891)
# Probe 484 (107.81918 202.76835 1.8486891)
# Probe 485 (107.81918 200.88249 1.8486891)
# Probe 486 (107.81918 198.99663 1.8486891)
# Probe 487 (107.81918 197.11077 1.8486891)
# Probe 488 (107.81918 195.22492 1.8486891)
# Probe 489 (107.81918 193.33906 1.8486891)
# Probe 490 (107.81918 185.79562 1.8486891)
# Probe 491 (107.81918 183.90976 1.8486891)
# Probe 492 (107.81918 182.02391 1.8486891)
# Probe 493 (107.81918 180.13805 1.8486891)
# Probe 494 (107.81918 178.25219 1.8486891)
# Probe 495 (107.81918 176.36633 1.8486891)
# Probe 496 (107.81918 174.48047 1.8486891)
# Probe 497 (107.81918 165.05118 1.8486891)
# Probe 498 (107.81918 163.16532 1.8486891)
# Probe 499 (107.81918 161.27946 1.8486891)
# Probe 500 (108.58383 219.74108 1.8486891)
# Probe 501 (108.58383 217.85522 1.8486891)
# Probe 502 (108.58383 215.96936 1.8486891)
# Probe 503 (108.58383 206.54007 1.8486891)
# Probe 504 (108.58383 204.65421 1.8486891)
# Probe 505 (108.58383 202.76835 1.8486891)
# Probe 506 (108.58383 200.88249 1.8486891)
# Probe 507 (108.58383 198.99663 1.8486891)
# Probe 508 (108.58383 197.11077 1.8486891)
# Probe 509 (108.58383 195.22492 1.8486891)
# Probe 510 (108.58383 193.33906 1.8486891)
# Probe 511 (108.58383 185.79562 1.8486891)
# Probe 512 (108.58383 183.90976 1.8486891)
# Probe 513 (108.58383 182.02391 1.8486891)
# Probe 514 (108.58383 180.13805 1.8486891)
# Probe 515 (108.58383 178.25219 1.8486891)
# Probe 516 (108.58383 176.36633 1.8486891)
# Probe 517 (108.58383 174.48047 1.8486891)
# Probe 518 (108.58383 165.05118 1.8486891)
# Probe 519 (108.58383 163.16532 1.8486891)
# Probe 520 (108.58383 161.27946 1.8486891)
# Probe 521 (109.34847 219.74108 1.8486891)
# Probe 522 (109.34847 217.85522 1.8486891)
# Probe 523 (109.34847 215.96936 1.8486891)
# Probe 524 (109.34847 206.54007 1.8486891)
# Probe 525 (109.34847 204.65421 1.8486891)
# Probe 526 (109.34847 202.76835 1.8486891)
# Probe 527 (109.34847 200.88249 1.8486891)
# Probe 528 (109.34847 198.99663 1.8486891)
# Probe 529 (109.34847 197.11077 1.8486891)
# Probe 530 (109.34847 195.22492 1.8486891)
# Probe 531 (109.34847 193.33906 1.8486891)
# Probe 532 (109.34847 185.79562 1.8486891)
# Probe 533 (109.34847 183.90976 1.8486891)
# Probe 534 (109.34847 182.02391 1.8486891)
# Probe 535 (109.34847 180.13805 1.8486891)
# Probe 536 (109.34847 178.25219 1.8486891)
# Probe 537 (109.34847 176.36633 1.8486891)
# Probe 538 (109.34847 174.48047 1.8486891)
# Probe 539 (109.34847 165.05118 1.8486891)
# Probe 540 (109.34847 163.16532 1.8486891)
# Probe 541 (109.34847 161.27946 1.8486891)
# Probe 542 (110.11312 219.74108 1.8486891)
# Probe 543 (110.11312 217.85522 1.8486891)
# Probe 544 (110.11312 215.96936 1.8486891)
# Probe 545 (110.11312 206.54007 1.8486891)
# Probe 546 (110.11312 204.65421 1.8486891)
# Probe 547 (110.11312 202.76835 1.8486891)
# Probe 548 (110.11312 200.88249 1.8486891)
# Probe 549 (110.11312 198.99663 1.8486891)
# Probe 550 (110.11312 197.11077 1.8486891)
# Probe 551 (110.11312 195.22492 1.8486891)
# Probe 552 (110.11312 193.33906 1.8486891)
# Probe 553 (110.11312 185.79562 1.8486891)
# Probe 554 (110.11312 183.90976 1.8486891)
# Probe 555 (110.11312 182.02391 1.8486891)
# Probe 556 (110.11312 180.13805 1.8486891)
# Probe 557 (110.11312 178.25219 1.8486891)
# Probe 558 (110.11312 176.36633 1.8486891)
# Probe 559 (110.11312 174.48047 1.8486891)
# Probe 560 (110.11312 165.05118 1.8486891)
# Probe 561 (110.11312 163.16532 1.8486891)
# Probe 562 (110.11312 161.27946 1.8486891)
# Probe 563 (110.87777 219.74108 1.8486891)
# Probe 564 (110.87777 217.85522 1.8486891)
# Probe 565 (110.87777 215.96936 1.8486891)
# Probe 566 (110.87777 206.54007 1.8486891)
# Probe 567 (110.87777 204.65421 1.8486891)
# Probe 568 (110.87777 202.76835 1.8486891)
# Probe 569 (110.87777 200.88249 1.8486891)
# Probe 570 (110.87777 198.99663 1.8486891)
# Probe 571 (110.87777 197.11077 1.8486891)
# Probe 572 (110.87777 195.22492 1.8486891)
# Probe 573 (110.87777 193.33906 1.8486891)
# Probe 574 (110.87777 185.79562 1.8486891)
# Probe 575 (110.87777 183.90976 1.8486891)
# Probe 576 (110.87777 182.02391 1.8486891)
# Probe 577 (110.87777 180.13805 1.8486891)
# Probe 578 (110.87777 178.25219 1.8486891)
# Probe 579 (110.87777 176.36633 1.8486891)
# Probe 580 (110.87777 174.48047 1.8486891)
# Probe 581 (110.87777 165.05118 1.8486891)
# Probe 582 (110.87777 163.16532 1.8486891)
# Probe 583 (110.87777 161.27946 1.8486891)
# Probe 584 (111.64242 219.74108 1.8486891)
# Probe 585 (111.64242 217.85522 1.8486891)
# Probe 586 (111.64242 215.96936 1.8486891)
# Probe 587 (111.64242 206.54007 1.8486891)
# Probe 588 (111.64242 204.65421 1.8486891)
# Probe 589 (111.64242 202.76835 1.8486891)
# Probe 590 (111.64242 200.88249 1.8486891)
# Probe 591 (111.64242 198.99663 1.8486891)
# Probe 592 (111.64242 197.11077 1.8486891)
# Probe 593 (111.64242 195.22492 1.8486891)
# Probe 594 (111.64242 193.33906 1.8486891)
# Probe 595 (111.64242 185.79562 1.8486891)
# Probe 596 (111.64242 183.90976 1.8486891)
# Probe 597 (111.64242 182.02391 1.8486891)
# Probe 598 (111.64242 180.13805 1.8486891)
# Probe 599 (111.64242 178.25219 1.8486891)
# Probe 600 (111.64242 176.36633 1.8486891)
# Probe 601 (111.64242 174.48047 1.8486891)
# Probe 602 (111.64242 165.05118 1.8486891)
# Probe 603 (111.64242 163.16532 1.8486891)
# Probe 604 (111.64242 161.27946 1.8486891)
# Probe 605 (112.40706 219.74108 1.8486891)
# Probe 606 (112.40706 217.85522 1.8486891)
# Probe 607 (112.40706 215.96936 1.8486891)
# Probe 608 (112.40706 206.54007 1.8486891)
# Probe 609 (112.40706 204.65421 1.8486891)
# Probe 610 (112.40706 202.76835 1.8486891)
# Probe 611 (112.40706 200.88249 1.8486891)
# Probe 612 (112.40706 198.99663 1.8486891)
# Probe 613 (112.40706 197.11077 1.8486891)
# Probe 614 (112.40706 195.22492 1.8486891)
# Probe 615 (112.40706 193.33906 1.8486891)
# Probe 616 (112.40706 185.79562 1.8486891)
# Probe 617 (112.40706 183.90976 1.8486891)
# Probe 618 (112.40706 182.02391 1.8486891)
# Probe 619 (112.40706 180.13805 1.8486891)
# Probe 620 (112.40706 178.25219 1.8486891)
# Probe 621 (112.40706 176.36633 1.8486891)
# Probe 622 (112.40706 174.48047 1.8486891)
# Probe 623 (112.40706 165.05118 1.8486891)
# Probe 624 (112.40706 163.16532 1.8486891)
# Probe 625 (112.40706 161.27946 1.8486891)
# Probe 626 (113.17171 219.74108 1.8486891)
# Probe 627 (113.17171 217.85522 1.8486891)
# Probe 628 (113.17171 215.96936 1.8486891)
# Probe 629 (113.17171 214.0835 1.8486891)
# Probe 630 (113.17171 212.19764 1.8486891)
# Probe 631 (113.17171 210.31178 1.8486891)
# Probe 632 (113.17171 208.42593 1.8486891)
# Probe 633 (113.17171 206.54007 1.8486891)
# Probe 634 (113.17171 204.65421 1.8486891)
# Probe 635 (113.17171 202.76835 1.8486891)
# Probe 636 (113.17171 200.88249 1.8486891)
# Probe 637 (113.17171 198.99663 1.8486891)
# Probe 638 (113.17171 197.11077 1.8486891)
# Probe 639 (113.17171 195.22492 1.8486891)
# Probe 640 (113.17171 193.33906 1.8486891)
# Probe 641 (113.17171 185.79562 1.8486891)
# Probe 642 (113.17171 183.90976 1.8486891)
# Probe 643 (113.17171 182.02391 1.8486891)
# Probe 644 (113.17171 180.13805 1.8486891)
# Probe 645 (113.17171 178.25219 1.8486891)
# Probe 646 (113.17171 176.36633 1.8486891)
# Probe 647 (113.17171 174.48047 1.8486891)
# Probe 648 (113.17171 172.59461 1.8486891)
# Probe 649 (113.17171 170.70875 1.8486891)
# Probe 650 (113.17171 168.8229 1.8486891)
# Probe 651 (113.17171 166.93704 1.8486891)
# Probe 652 (113.17171 165.05118 1.8486891)
# Probe 653 (113.17171 163.16532 1.8486891)
# Probe 654 (113.17171 161.27946 1.8486891)
# Probe 655 (113.93636 219.74108 1.8486891)
# Probe 656 (113.93636 217.85522 1.8486891)
# Probe 657 (113.93636 215.96936 1.8486891)
# Probe 658 (113.93636 214.0835 1.8486891)
# Probe 659 (113.93636 212.19764 1.8486891)
# Probe 660 (113.93636 210.31178 1.8486891)
# Probe 661 (113.93636 208.42593 1.8486891)
# Probe 662 (113.93636 206.54007 1.8486891)
# Probe 663 (113.93636 204.65421 1.8486891)
# Probe 664 (113.93636 202.76835 1.8486891)
# Probe 665 (113.93636 200.88249 1.8486891)
# Probe 666 (113.93636 198.99663 1.8486891)
# Probe 667 (113.93636 197.11077 1.8486891)
# Probe 668 (113.93636 195.22492 1.8486891)
# Probe 669 (113.93636 193.33906 1.8486891)
# Probe 670 (113.93636 185.79562 1.8486891)
# Probe 671 (113.93636 183.90976 1.8486891)
# Probe 672 (113.93636 182.02391 1.8486891)
# Probe 673 (113.93636 180.13805 1.8486891)
# Probe 674 (113.93636 178.25219 1.8486891)
# Probe 675 (113.93636 176.36633 1.8486891)
# Probe 676 (113.93636 174.48047 1.8486891)
# Probe 677 (113.93636 172.59461 1.8486891)
# Probe 678 (113.93636 170.70875 1.8486891)
# Probe 679 (113.93636 168.8229 1.8486891)
# Probe 680 (113.93636 166.93704 1.8486891)
# Probe 681 (113.93636 165.05118 1.8486891)
# Probe 682 (113.93636 163.16532 1.8486891)
# Probe 683 (113.93636 161.27946 1.8486891)
# Probe 684 (114.70101 219.74108 1.8486891)
# Probe 685 (114.70101 217.85522 1.8486891)
# Probe 686 (114.70101 215.96936 1.8486891)