/*--------------------------------*- C++ -*----------------------------------*\
  =========                 |
  \\      /  F ield         | OpenFOAM: The Open Source CFD Toolbox
   \\    /   O peration     | Website:  https://openfoam.org
    \\  /    A nd           | Version:  8
     \\/     M anipulation  |
\*---------------------------------------------------------------------------*/
/*   Windows 32 and 64 bit porting by blueCAPE: http://www.bluecape.com.pt   *\
|  Based on Windows porting (2.0.x v4) by Symscape: http://www.symscape.com   |
\*---------------------------------------------------------------------------*/
FoamFile
{
    version     2.0;
    format      ascii;
    class       volScalarField;
    location    "0/vegetation";
    object      viewFactorField;
}
// * * * * * * * * * * * * * * * * * * * * * * * * * * * * * * * * * * * * * //

dimensions      [0 0 0 0 0 0 0];

internalField   uniform 0;

boundaryField
{
    left
    {
        type            calculated;
        value           nonuniform List<scalar> 0();
    }
    right
    {
        type            calculated;
        value           nonuniform List<scalar> 0();
    }
    back
    {
        type            calculated;
        value           uniform 1.0485533;
    }
    front
    {
        type            calculated;
        value           nonuniform List<scalar> 0();
    }
    bottom
    {
        type            calculated;
        value           nonuniform List<scalar> 
243
(
0.99412267
0.99412267
0.64783027
0.93533134
0.71315881
1.0297844
1.0513062
0.96231015
0.94798842
0.954768
0.98945528
0.94798842
0.71315881
0.93533134
0.64783027
0.94798842
0.99288064
0.99412267
0.94798842
0.93533134
1.0205254
1.0007682
0.77517328
0.96231015
0.81569283
0.92949227
0.954768
0.81569283
0.954768
0.92949227
0.95161064
1.0080751
1.0654153
1.0080751
0.9803849
0.9119977
0.70092036
0.74814859
0.71689179
0.9690213
0.99288064
0.8644956
0.71689179
0.80497339
0.83895142
1.0513062
1.0513062
1.0513062
0.83895142
0.86730824
0.81131678
0.81131678
0.86783617
0.77517328
0.87905298
0.88523828
0.88109695
0.90836821
0.70092036
0.71689179
0.74814859
0.95161064
0.95161064
0.95161064
0.95161064
1.0205254
0.93533134
0.64783027
0.64869081
0.62465676
0.62465676
0.6904139
0.71315881
0.81131678
0.86730824
0.74891024
0.78595031
0.79694645
0.77517328
0.86783617
0.91352915
0.75644312
0.75644312
0.73127009
0.95161064
0.99663565
0.96231015
0.9803849
0.80497339
0.71689179
0.83895142
0.80497339
0.92949227
0.69656706
0.64869081
0.70092036
0.74814859
0.64869081
0.69656706
0.62465676
0.64869081
0.75733587
0.73127009
0.75644312
0.77517328
0.87905298
0.63697304
0.63697304
0.64783027
0.88523828
0.88523828
0.79694645
0.63697304
0.63697304
0.73127009
0.79694645
0.78595031
0.81131678
0.99412267
1.0007682
1.0007682
1.0297844
1.0297844
1.0297844
1.0080751
0.86074488
0.86074488
0.954768
0.98945528
0.98945528
0.98945528
0.94798842
0.71315881
0.69752574
0.69752574
1.0080751
1.0080751
1.0080751
0.99288064
1.0080751
1.0080751
0.94798842
1.0205254
1.0007682
0.9690213
0.88109695
0.88109695
0.77517328
0.954768
0.954768
0.80497339
0.9803849
1.0080751
1.0654153
1.0654153
0.95161064
1.0080751
0.86074488
0.86074488
0.9803849
0.9119977
0.9119977
0.9119977
0.96231015
0.9690213
0.99288064
0.8644956
0.9690213
0.88109695
0.80497339
0.6904139
0.62465676
0.83895142
0.6904139
0.80497339
0.83895142
0.6904139
0.83895142
0.78595031
0.78595031
0.83895142
0.86783617
0.88523828
0.88523828
0.69656706
0.90836821
0.90836821
0.70092036
0.90836821
0.69656706
0.75733587
0.75733587
0.75733587
0.95161064
0.95161064
0.74814859
0.91352915
1.0205254
1.0205254
0.74891024
0.74891024
0.74891024
0.69752574
0.69752574
0.79694645
0.77517328
0.8644956
0.8644956
0.75644312
0.75644312
0.69752574
0.75644312
0.75644312
0.75644312
0.99663565
0.99663565
0.99663565
0.81569283
0.81569283
0.71689179
0.73127009
0.77517328
0.77517328
1.0205254
1.0205254
1.0205254
1.0205254
1.0080751
1.0654153
1.0654153
0.92949227
0.86730824
0.78595031
0.78595031
0.87905298
0.87905298
0.88523828
0.81131678
0.86730824
0.87905298
0.91352915
0.91352915
0.86783617
)
;
    }
    top
    {
        type            calculated;
        value           nonuniform List<scalar> 
54
(
1.0250337
1.0250337
0.97806705
1.0250337
0.97806705
0.97806705
0.97806705
0.97806705
1.0250337
1.0250337
1.0250337
1.0250337
0.97806705
0.97806705
0.97806705
0.97806705
1.0250337
1.0250337
1.0250337
0.97806705
0.97806705
0.97806705
1.0250337
1.0250337
0.97806705
0.97806705
0.97806705
0.97806705
0.97806705
1.0250337
1.0250337
1.0250337
0.97806705
0.97806705
0.97806705
1.0250337
1.0250337
0.97806705
1.0250337
1.0250337
1.0250337
1.0250337
1.0250337
0.97806705
0.97806705
0.97806705
0.97806705
0.97806705
0.97806705
1.0250337
1.0250337
1.0250337
1.0250337
1.0250337
)
;
    }
    tower
    {
        type            calculated;
        value           nonuniform List<scalar> 
500
(
0.9948007
0.99446175
0.99575654
0.99668979
0.8959626
0.8722782
0.85564583
0.90782353
0.90119778
0.85017811
0.91031898
0.94365601
0.94984152
0.92929627
0.99195458
0.99524921
0.99142691
0.9939135
0.99181106
0.99537062
0.99337442
0.99316111
1.0230529
0.99411687
0.9935125
0.99132134
0.94257216
0.95805515
0.9643602
0.9580696
0.94603137
0.96141474
0.75312488
0.82942434
0.73265598
0.85593448
0.76638428
0.87550567
0.72670335
0.75848324
0.75867607
0.8402092
0.82989766
0.8272025
0.87083437
0.85048475
0.92874438
0.9041622
0.93651473
0.89568922
0.92860734
0.94672606
0.87129804
0.85332106
0.85188395
0.87646371
0.91146129
0.95612465
0.97577235
0.96922739
0.97238292
0.97233591
0.96376191
0.96966956
0.9924501
0.99085353
0.99238965
0.99289488
0.99281709
0.99615471
0.97177878
0.95729183
0.99345882
0.97881597
0.99074043
0.99192162
1.0071896
0.99113666
0.99179926
0.98505964
0.9653912
0.99074971
0.99069255
0.98902368
1.0174687
0.99319312
0.99295554
0.99172337
0.99290417
0.99303583
0.9931787
0.99306477
0.99286365
0.99305155
0.99220722
0.99280244
0.9923868
0.98965425
0.99173183
0.9911292
0.98872142
0.98950131
0.99033238
0.86590055
0.99293757
0.99167295
0.9928507
0.99247261
0.99135309
0.9926845
0.99288927
0.99151975
0.99269281
0.97448876
0.97422427
0.99239012
0.98990803
0.99192021
0.99118211
0.98897029
0.87735281
1.0200994
0.94561214
0.8977548
0.92724392
0.9235755
0.66118083
0.88066216
0.876203
0.76325446
0.96481699
0.8509085
0.69808521
0.69146593
0.65898015
0.73145467
0.57826283
0.51364554
0.55601512
0.5544111
0.52646276
0.5500681
0.53694104
0.53934257
0.67601821
0.92131936
0.54506617
0.50279608
0.63895443
0.87083458
0.59536746
0.59495379
0.94754584
0.94634058
0.87775528
0.86479175
0.69652673
0.73300907
0.66365112
0.64678573
0.55974903
0.85611087
0.585177
0.90148027
0.77734304
0.77814342
0.67991905
0.72733739
1.013107
0.75008129
0.76385254
0.82896965
0.80118753
1.0005789
0.91890328
0.87554435
0.94597632
0.98827198
0.98924791
0.99134682
0.99178486
0.96644691
0.97335666
0.93601447
0.95544559
0.87951297
0.94271564
0.99337188
0.9931418
0.97787533
0.98167478
0.99306458
0.99281835
0.99220243
0.99256789
0.99270494
0.88581368
0.8694432
0.99337081
0.99314165
0.99330463
0.99307897
0.87439448
0.88290855
0.99322218
0.9929474
0.99334683
0.99300979
0.97732849
0.9724922
0.99257401
0.99200933
0.9931296
0.99268297
0.99273889
0.9925443
0.96911016
0.97233553
0.98943401
0.99045717
0.99153131
0.99114702
0.99051852
0.98847619
0.98763982
0.98975749
0.99004574
0.74758022
0.81522264
0.80989086
0.75111056
0.66288873
0.69057617
0.68081311
0.65181255
0.87253263
0.98908919
0.79820491
1.0023261
0.95632222
0.94561775
0.95115909
0.95137548
0.86331862
0.79389547
0.87890198
0.84934952
0.94474688
0.9267502
0.9375707
0.94332963
0.98486654
1.002904
0.99738007
1.0253766
0.99291664
0.9925868
0.99215528
0.99173418
0.99292302
0.99254643
0.99256506
0.99203828
0.99263885
0.99229246
0.99287177
0.99257557
0.99279999
0.99234044
0.99224943
0.99190553
0.99066478
0.99003178
0.99209035
0.99134236
0.99048847
0.99114064
0.98792806
0.98922673
0.95662138
0.91531836
0.96834477
0.9655934
0.97267643
0.96363439
0.95770428
0.95841306
0.95507836
0.95262597
0.94109475
0.94438045
0.95172482
0.96202348
0.94339628
0.94756914
0.95612919
0.95618359
0.965383
0.97081817
0.96649789
1.0073918
0.95559312
1.0201543
0.94427108
0.94263271
0.9409777
0.96295824
0.81668486
0.74843172
0.74116633
0.70739054
0.84259954
0.87331902
0.93081787
0.91668861
0.97665884
0.95488945
0.94639398
1.000365
0.95201068
0.91124891
0.95762318
0.97978914
0.86910681
0.81076281
0.83070333
0.83507537
0.8557193
0.82954238
0.84388245
0.83089393
0.93713564
0.94045251
0.94610774
0.93634347
0.96075807
0.96634185
0.97254278
0.96045845
0.98898675
0.98946472
1.0073923
0.98129497
0.97419846
0.97571299
0.97905143
0.96888646
0.96696784
0.97792287
0.96055991
0.96830614
0.95700534
0.9628444
0.95787039
0.96142274
0.96945412
0.98316982
0.97388447
0.97994641
0.9721282
0.97300451
0.97983003
0.97556818
0.97566087
0.97242059
0.972962
0.97320695
0.95762951
0.96898664
0.96937984
0.9574004
0.95172269
0.95349927
0.94853018
0.95308368
0.9655594
0.97587166
0.97315306
0.96725756
0.97480036
0.9782569
0.9755893
0.97954556
1.0001686
0.98711825
0.9900691
0.99075694
0.99220915
0.97856736
0.97342226
0.97611683
0.99323068
0.99311811
0.96751743
0.99336859
0.99330662
0.99325467
0.99330856
0.94921752
0.9465841
0.9581902
0.95919359
0.9624228
0.96312487
0.96580094
0.97399946
0.96999095
0.95929195
0.9923944
0.99301793
0.95258869
0.94337088
0.99288846
0.9610095
0.9667201
0.97384718
0.97090043
0.99024906
0.99094431
0.98735532
0.8419825
0.87548586
0.86365636
0.81258207
0.9480886
0.93646593
0.89073592
0.8901694
0.92335364
0.93002779
0.90503023
0.90846397
0.81256918
0.75487637
0.74752406
0.81003274
0.77956229
0.79143117
0.92224131
0.7435918
0.9749822
0.97650233
0.97781599
0.97634225
0.96757041
0.98085621
0.98040241
0.97281004
0.97536101
0.96898963
0.96420121
0.96992825
0.98876754
0.97785876
0.97805744
0.98413603
0.9737891
0.97366236
0.97917699
0.97372197
0.95915056
0.95792962
0.96360482
0.96717364
0.95322003
0.96067953
0.97194899
0.95697538
0.97348943
0.98091689
0.99215372
0.96632551
0.94617316
0.95422403
0.92036542
0.89372681
0.94865599
0.92511222
0.91716705
0.93701293
1.0134832
0.94876758
1.0024123
1.0072256
0.93496511
0.9244692
0.92379732
0.93442999
0.99263618
0.99217928
0.99261124
0.99214657
0.99223046
0.99253328
0.99244309
0.99172349
0.99083892
0.99152878
0.99047721
0.98813815
)
;
    }
    air_to_vegetation
    {
        type            calculated;
        value           nonuniform List<scalar> 
384
(
1.0161556
1.1063789
1.1063789
1.0161556
1.1137228
1.1137228
0.84374225
1.0444059
1.1063789
1.1198644
0.84374225
1.1198644
0.93045046
1.0691029
1.0161556
0.93045046
0.93045046
0.93045046
0.93045046
1.1137228
1.1137228
0.84374225
0.84374225
1.0444059
1.0444059
1.0444059
1.0444059
1.1063789
1.1063789
1.1198644
0.84374225
0.84374225
1.1198644
1.1063789
0.93045046
1.0444059
1.0444059
1.0444059
0.84374225
0.93045046
0.84374225
0.84374225
1.0691029
1.0691029
1.0691029
1.0161556
1.0161556
1.1198644
0.84374225
0.84374225
0.93045046
0.93045046
0.93045046
0.93045046
1.1137228
1.1137228
1.0161556
1.1137228
0.93045046
0.93045046
0.84374225
0.84374225
0.84374225
1.0444059
1.0444059
1.0444059
0.84374225
1.1063789
1.1063789
1.1063789
1.1063789
1.1063789
1.1063789
1.0691029
1.0161556
1.0161556
1.0161556
1.0161556
1.0161556
1.0444059
1.1063789
1.1063789
1.0444059
1.0444059
1.0444059
1.0444059
1.0444059
1.0444059
1.1063789
1.0444059
1.1063789
1.1063789
1.0161556
1.1063789
1.1063789
1.1198644
1.1198644
1.1198644
1.1198644
1.1063789
1.1198644
1.1198644
1.1198644
0.84374225
1.1198644
1.1198644
1.1198644
1.1198644
1.1063789
1.1063789
1.1198644
1.1198644
0.93045046
1.0691029
1.0691029
1.0691029
1.0161556
1.1137228
1.0691029
0.93045046
0.93045046
0.84374225
1.0444059
1.1137228
1.1137228
1.1137228
0.93045046
0.93045046
0.84374225
0.84374225
1.0691029
1.0691029
1.0691029
1.0691029
1.0444059
1.1137228
0.93045046
0.93045046
1.0161556
1.1137228
1.1137228
1.1137228
1.1137228
0.93045046
0.93045046
0.93045046
1.0444059
1.0444059
1.0444059
1.0444059
1.0444059
1.0444059
1.0444059
1.0444059
0.93045046
0.93045046
1.0444059
0.93045046
1.1137228
1.1137228
1.0161556
1.0161556
1.0161556
1.1137228
1.1137228
1.1137228
1.1137228
0.93045046
0.93045046
0.93045046
0.93045046
0.93045046
0.93045046
0.93045046
0.93045046
0.93045046
0.93045046
0.93045046
1.0691029
0.93045046
0.93045046
0.93045046
1.0444059
0.84374225
0.84374225
1.1198644
1.1198644
0.84374225
1.0444059
0.93045046
1.0444059
0.84374225
0.84374225
1.1063789
1.1063789
1.0161556
1.0691029
1.0161556
1.1063789
1.1198644
1.1198644
1.0691029
1.0691029
1.0691029
0.93045046
1.1063789
0.93045046
1.0691029
1.0691029
1.0691029
1.0444059
0.84374225
0.84374225
0.84374225
1.0161556
1.0161556
1.0161556
1.0691029
1.0691029
1.0161556
1.0161556
1.1137228
1.0161556
1.0691029
1.0161556
1.0161556
1.0161556
1.1198644
0.93045046
1.1198644
0.93045046
1.1198644
0.84374225
1.1137228
0.93045046
1.1137228
1.1137228
1.1137228
1.1137228
1.1137228
0.93045046
0.93045046
1.0444059
1.0444059
0.84374225
1.0444059
1.0444059
1.0444059
1.0444059
0.84374225
1.0444059
1.0444059
0.84374225
1.1063789
1.1063789
1.1063789
1.0691029
1.0691029
1.0161556
1.0161556
1.0161556
1.0161556
1.0161556
1.1063789
1.1063789
1.1063789
1.0161556
1.1063789
1.1063789
1.1198644
1.1198644
1.1198644
1.1063789
0.84374225
0.84374225
1.1198644
1.1198644
1.1198644
1.1198644
1.1198644
1.1198644
1.1198644
1.1198644
1.1063789
0.93045046
1.1198644
1.1137228
0.84374225
1.0691029
1.0691029
1.0691029
1.0691029
1.0691029
1.0691029
1.0444059
0.93045046
0.93045046
0.93045046
1.1137228
1.1137228
1.1137228
1.1137228
1.1137228
0.93045046
0.93045046
0.93045046
0.93045046
0.93045046
0.93045046
1.0444059
1.0444059
1.0444059
1.0444059
1.0444059
1.0444059
1.0444059
1.0444059
0.84374225
1.0444059
1.0444059
1.0444059
1.0444059
1.0444059
1.0444059
0.93045046
0.93045046
0.93045046
0.93045046
0.93045046
0.93045046
0.93045046
0.93045046
0.93045046
1.1137228
1.1137228
1.1137228
1.1137228
1.1137228
1.1137228
1.1137228
1.1137228
1.1137228
1.1137228
1.1137228
1.0161556
1.1137228
1.0161556
1.0161556
1.1137228
0.93045046
0.93045046
0.93045046
1.1137228
0.93045046
0.93045046
0.93045046
0.93045046
1.1137228
0.93045046
0.93045046
0.93045046
0.93045046
1.1137228
1.1137228
1.0161556
1.0161556
1.0161556
1.0161556
1.1137228
1.0691029
1.0691029
1.1137228
1.1137228
1.1137228
1.1137228
0.93045046
0.93045046
0.93045046
0.93045046
0.93045046
1.0444059
1.1137228
1.1137228
1.0444059
)
;
    }
    procBoundary18to14
    {
        type            processor;
        value           uniform 0;
    }
    procBoundary18to16
    {
        type            processor;
        value           uniform 0;
    }
    procBoundary18to17
    {
        type            processor;
        value           uniform 0;
    }
    procBoundary18to19
    {
        type            processor;
        value           uniform 0;
    }
}


// ************************************************************************* //
