/*--------------------------------*- C++ -*----------------------------------*\
  =========                 |
  \\      /  F ield         | OpenFOAM: The Open Source CFD Toolbox
   \\    /   O peration     | Website:  https://openfoam.org
    \\  /    A nd           | Version:  8
     \\/     M anipulation  |
\*---------------------------------------------------------------------------*/
/*   Windows 32 and 64 bit porting by blueCAPE: http://www.bluecape.com.pt   *\
|  Based on Windows porting (2.0.x v4) by Symscape: http://www.symscape.com   |
\*---------------------------------------------------------------------------*/
FoamFile
{
    version     2.0;
    format      ascii;
    class       volScalarField;
    location    "0/vegetation";
    object      viewFactorField;
}
// * * * * * * * * * * * * * * * * * * * * * * * * * * * * * * * * * * * * * //

dimensions      [0 0 0 0 0 0 0];

internalField   uniform 0;

boundaryField
{
    left
    {
        type            calculated;
        value           nonuniform List<scalar> 0();
    }
    right
    {
        type            calculated;
        value           nonuniform List<scalar> 
72
(
1.0938914
1.0324021
1.0938914
1.0324021
0.95788818
1.0938914
1.0938914
1.0938914
0.95788818
0.95788818
1.0324021
1.0019146
0.95788818
1.0938914
0.95788818
1.0019146
1.0938914
1.0938914
1.0938914
1.0938914
1.0938914
1.0938914
1.0324021
1.0324021
1.0324021
1.0324021
1.0324021
1.0324021
1.0324021
1.0324021
0.95788818
1.0324021
1.0324021
1.0324021
0.95788818
0.95788818
0.95788818
0.95788818
1.0324021
1.0324021
0.95788818
1.0324021
1.0324021
1.0324021
1.0019146
1.0019146
1.0019146
0.95788818
1.0019146
1.0019146
1.0019146
1.0019146
0.95788818
0.95788818
0.95788818
1.0019146
0.95788818
0.95788818
1.0019146
1.0019146
1.0019146
1.0019146
1.0019146
1.0938914
1.0938914
1.0938914
1.0938914
1.0938914
1.0938914
1.0019146
1.0019146
1.0019146
)
;
    }
    back
    {
        type            calculated;
        value           uniform 1.0729773;
    }
    front
    {
        type            calculated;
        value           nonuniform List<scalar> 0();
    }
    bottom
    {
        type            calculated;
        value           nonuniform List<scalar> 
146
(
1.0210539
1.0210539
1.0349021
1.0631028
1.0631028
1.1033209
1.0629787
0.99737383
1.0825485
1.0099718
1.0825485
0.88604039
0.73295432
0.88604039
0.73295432
1.041521
1.0167007
1.0125509
1.0167007
1.0125509
0.99536573
0.99536573
0.99737383
1.0210539
0.88604039
1.0099718
1.1033209
1.0629787
1.051596
0.88604039
0.99737383
1.0948347
1.0948347
1.0099718
1.0149664
1.0507039
1.0948347
1.0379232
0.93130777
0.93130777
0.92817587
0.92817587
1.0454451
1.0948347
0.94455976
1.0379232
0.94455976
0.93130777
1.0094489
1.0094489
1.0191607
1.0191607
1.0454451
0.93130777
0.73295432
0.73295432
0.99536573
0.99536573
1.0210539
1.0349021
1.0349021
1.0349021
1.0384082
1.0384082
1.0825485
1.0349021
1.0825485
0.81017073
0.75330339
0.75330339
0.75330339
1.0384082
1.0384082
1.0825485
0.93130777
0.88604039
1.041521
1.041521
1.0149664
1.0167007
1.041521
1.041521
0.94455976
0.94455976
1.0125509
1.0125509
1.0125509
1.0379232
1.0379232
1.0167007
1.0125509
1.0379232
1.0379232
0.94455976
0.94455976
0.99737383
0.99536573
0.99536573
0.92817587
1.0557807
1.0557807
1.0557807
0.92817587
1.0629787
1.0629787
1.0099718
1.051596
1.051596
1.051596
1.0557807
0.93130777
0.93130777
0.81017073
0.81017073
1.0507039
1.0507039
1.0507039
0.75330339
1.0379232
0.93130777
0.93130777
0.92817587
0.88604039
1.0454451
1.0454451
1.0454451
0.73295432
0.81017073
1.0379232
1.0379232
1.0631028
1.0631028
1.0631028
1.0631028
1.1033209
1.1033209
1.1033209
1.0094489
1.0094489
0.99737383
1.0099718
1.0191607
1.0191607
1.0149664
1.0149664
1.0149664
)
;
    }
    top
    {
        type            calculated;
        value           nonuniform List<scalar> 
105
(
0.99560521
1.0359051
0.99560521
1.0583149
0.90161344
0.90161344
1.0583149
1.0583149
1.0583149
0.90161344
0.90161344
1.0359051
1.0359051
0.99560521
1.0359051
1.0359051
0.90161344
0.99909941
0.99560521
0.90161344
0.90161344
0.99560521
1.0583149
1.0583149
0.90161344
0.90161344
0.90161344
1.0583149
1.0583149
0.99560521
0.90161344
0.90161344
0.90161344
0.90161344
1.0359051
1.0359051
0.90161344
1.0359051
0.99909941
0.99909941
0.90161344
0.90161344
0.90161344
0.99909941
0.99560521
0.99909941
0.90161344
0.90161344
0.90161344
0.90161344
0.90161344
0.90161344
0.99909941
0.99909941
0.99560521
0.99560521
0.99560521
0.99909941
0.99560521
0.99560521
0.99560521
1.0359051
1.0359051
1.0359051
0.99560521
1.0583149
1.0583149
1.0359051
1.0359051
1.0359051
1.0359051
1.0359051
1.0583149
1.0583149
1.0583149
1.0583149
1.0583149
1.0583149
1.0583149
1.0359051
1.0359051
1.0359051
1.0583149
1.0583149
0.99560521
0.99560521
1.0583149
1.0583149
0.90161344
0.90161344
0.99909941
0.99909941
0.99909941
0.90161344
0.90161344
0.90161344
0.90161344
0.90161344
0.90161344
0.99909941
0.99909941
0.99909941
0.99909941
0.99909941
0.99560521
)
;
    }
    tower
    {
        type            calculated;
        value           nonuniform List<scalar> 
1020
(
0.98931135
0.92593427
0.98793363
0.86131199
0.99267534
0.99197225
0.98393758
0.98295946
0.96986147
0.95875669
0.95120051
0.97170581
0.95396052
0.94189382
0.93711281
0.98165114
0.97741471
0.99271173
0.98623416
0.98519225
0.99014025
0.98376462
0.98728102
0.98278975
0.97532608
0.98886094
0.98539014
0.99334688
0.98932746
0.98931448
0.98499909
0.99106474
0.98862062
0.98848805
0.98216103
0.97398918
0.97353299
0.98411049
0.98509746
0.97736013
0.97698915
0.96301237
0.9651221
0.98141537
0.98249618
0.97710061
0.97505765
0.98595677
0.9851645
0.984518
0.98322064
0.99128904
0.98972441
0.98727711
0.97249788
0.98793638
0.95884501
0.96390293
0.96240463
0.85144032
0.9805399
0.98558111
0.97898429
0.98141879
1.0138159
0.98857016
0.98898393
0.98722035
0.98644548
0.98208908
0.98647055
0.9836708
0.97845592
0.97294654
0.98773614
0.98853803
0.98465892
0.99010726
0.99007312
0.98655532
0.98753154
0.98737837
0.9701118
0.96916277
0.98266553
0.98001192
0.98097995
0.93126262
0.96852415
0.9692597
0.98020846
0.98346524
0.97878788
0.97251164
0.98679366
0.98435498
0.96604214
0.96293901
0.99313195
0.98622588
0.99253954
0.98335497
0.97813268
0.98442725
0.98070021
0.95882195
0.94918218
0.97329509
0.95368437
0.97494113
0.95440742
1.002899
0.99399341
1.0047715
1.024568
1.0011289
1.0244198
1.0276489
0.95264904
0.99615826
0.97623032
0.98811645
0.98395153
0.9807089
0.98663615
0.94794609
0.9975464
0.97685015
0.9796519
0.95372517
0.95819693
0.97725972
1.0034579
0.99958681
1.0214763
0.99288586
1.0017252
0.9873292
0.99336333
0.99103441
0.99011464
0.99082976
0.98961255
0.9877634
0.98403207
0.98699789
0.97653805
0.98276597
0.9781852
0.97719629
0.97666755
0.98913972
0.98504523
0.98828659
0.96704844
0.97296287
0.98309437
0.97629706
0.95122859
0.95214355
0.95518425
0.95601358
0.99831685
0.99707549
1.0117194
1.0145636
1.0112726
1.0145592
0.97411562
0.97872856
0.96381104
0.97936667
0.94448552
0.98115958
0.95958168
0.97966402
0.97680669
0.97855876
0.98329321
0.97807691
0.97738157
0.98494745
0.97791181
0.94233051
0.98595118
0.93928202
0.9818934
0.98395634
0.98182643
0.9687394
0.95920374
0.98442214
0.98836131
0.98751746
0.990305
0.99028554
0.98832535
0.98310665
0.9789555
0.97836738
0.98706045
0.98992435
0.98729398
0.98301584
0.98339458
0.98706828
0.98433676
0.98818372
0.98914364
0.98894381
0.97398062
0.98268878
0.97566992
0.97090346
0.96011162
0.97239101
0.95144096
0.94990755
0.97116061
0.96245642
0.953605
0.976264
0.96622225
0.95695
0.98128477
0.99445447
0.96574236
0.94739381
0.96171603
0.99240763
0.98503394
0.98293402
0.97522164
0.96924457
0.96569151
0.9812307
0.99142741
0.98245692
0.98691474
0.98533763
0.97917248
0.98474092
0.97988342
0.97771152
0.98413914
0.98377288
0.98091292
0.98564123
0.98012714
0.94192171
0.94662092
0.98131093
0.98140176
0.98242741
0.98180747
0.95615848
0.96675545
0.9685393
0.97042379
0.95679695
0.96932236
1.0098027
1.0001887
1.0036685
1.0091989
0.99529758
1.0031392
1.0124225
1.0122746
1.0055457
0.99743911
0.99750714
0.99526079
0.99627245
0.99178651
0.99334659
0.98695887
0.98899135
0.98748265
0.95415039
0.95404569
0.95061452
0.95652831
0.9606463
0.95238724
0.96426442
0.96258969
0.96778109
0.96658269
0.95868542
0.9681676
0.9966347
0.94547881
0.93792433
0.94469511
0.94183242
0.9734902
0.97894829
0.97217624
0.97005044
0.97818216
0.97192303
0.99415879
0.99667783
1.0014674
0.96436607
0.9406975
0.9498085
0.92161814
0.93549445
0.93582887
0.97387437
0.91399121
0.93035088
0.97423149
0.97743036
0.98053984
0.95368717
0.97367842
0.97655932
0.98004444
0.95878326
0.9737603
0.97912351
0.9764512
0.97138474
0.97407261
0.97630083
0.97891448
0.97470772
0.97415566
0.97626084
0.97839752
0.98228104
0.97427053
0.97608327
0.97823818
0.98415436
0.97425936
0.97599694
0.97774131
0.9740818
0.97564802
0.9775643
0.97398359
0.97550717
0.97701221
0.97367504
0.9750879
0.97683296
0.97360346
0.97647054
0.97497664
0.97532541
0.96747692
0.99232893
0.99367586
0.97916121
0.9804986
0.98136439
0.9847425
0.95942857
0.96322187
1.0040295
1.0012119
0.99492851
0.99457885
1.0060322
1.0068498
1.0211044
1.028041
0.98601621
0.95129371
0.95738342
0.99258298
0.99480642
0.98468375
0.97525999
0.97954807
0.9784086
0.98430121
0.95474778
0.95841266
0.95759352
0.96343167
1.0028845
0.99806058
1.0183622
1.0183918
0.98959405
0.98836182
0.9896146
0.99418015
0.98935889
0.99061398
0.99156689
0.99131531
0.98890643
0.98905834
0.98717832
0.98844579
0.98363011
0.9851505
0.98645206
0.98613313
0.98242572
0.98135271
0.97805528
0.97981215
0.9899116
0.98597367
0.98712537
0.96894096
0.98209438
0.97904125
0.99969049
0.99915102
0.99595109
0.99783452
1.0091563
1.0135188
1.0177008
1.0166067
0.96402351
0.96875179
0.98815044
0.9829897
1.0049959
0.93488565
0.97281408
0.97099577
0.96762272
0.961528
0.95687803
0.9549114
0.97576308
0.97923885
0.98276914
0.98138702
0.98452794
0.98638876
0.94918964
0.94392325
0.9200782
0.97796376
0.9267774
0.98647974
0.98313446
0.98757864
0.98869272
0.98494389
0.98251856
0.96229682
0.96395288
0.95612944
0.95378976
0.97876511
0.98059032
0.98005312
0.97857444
0.98482359
0.96825374
0.97139421
0.95992451
0.96444458
0.96862585
0.97188641
0.96974306
0.96849832
0.97267577
0.97324678
0.98638083
0.96180162
0.96475308
0.94955908
0.95242032
0.9572547
0.96340497
0.99354119
0.98936606
0.98886495
0.98421465
0.98351373
0.98619391
0.98161503
0.98351142
0.98203215
0.98553927
0.97940637
0.98081187
0.97964383
0.98169095
0.98063708
0.98306734
0.98037753
0.98199574
0.98437944
0.9841844
0.95549308
0.9605272
0.96277001
0.96752744
0.96479119
0.96799716
0.96679524
0.96995874
0.95745539
0.96107569
0.96986482
0.96562099
1.0060784
1.0070879
0.99661053
0.99803724
1.0050334
1.0006436
1.0152814
1.0101725
1.0153307
1.0099375
1.007883
1.0076551
0.99176044
0.99196596
0.96139716
1.0045892
0.98758277
1.0211282
1.007789
1.0313906
0.94534335
0.99382002
1.0053551
1.0020643
1.0001517
1.0005639
0.99424845
0.99271842
0.96635641
1.0079591
0.98180174
1.0178402
0.93938703
0.98994738
0.98558725
0.9847905
0.98661265
0.98800287
0.99102047
0.98971451
0.98905665
0.9888133
0.98164272
0.98351134
0.98604274
0.98410173
0.98718224
0.98794635
0.989869
0.98901754
0.97643516
0.97453349
0.98073616
0.98247109
0.97844509
0.97510007
0.98312745
0.9723325
0.97615696
0.97196287
0.96823328
0.96924292
0.9671784
0.99075899
0.98853743
0.98672998
0.98566528
0.97998079
0.97842577
0.98199384
0.98421743
1.0074476
1.0077877
1.0057617
1.0019818
0.99872807
0.99654073
0.99521323
0.99548135
0.97594645
0.97304517
0.97261384
0.97468045
0.97260025
0.97061945
0.97119814
0.9742572
0.99321482
0.99672743
0.99915709
1.0000709
0.97179023
0.96985403
0.98632768
0.9891453
0.98631848
0.98546644
1.0175676
1.0386411
0.9879493
0.99032896
1.0133135
0.98709571
0.98538189
0.97959057
0.98292599
0.97826387
0.97228522
0.98679841
0.98636368
0.98695969
0.98661551
0.98611606
0.98376961
0.95470322
0.96115392
0.96756209
0.9629858
0.96971871
0.968681
0.97000162
0.9613653
0.97481773
0.99266114
0.97908455
0.99535331
0.99739009
0.95213306
0.94220284
0.95712007
0.94293002
0.93772417
0.95774613
0.96351267
0.95546268
0.94678666
0.98713192
0.95088746
0.98631934
0.99112551
0.9611508
0.98820123
0.96637392
0.98633306
0.98719361
0.95005139
0.94901271
0.98569381
0.9485903
0.96934832
0.96516574
0.96403519
0.97039346
0.97204495
0.96532282
0.99136783
0.97958949
0.99262585
0.95391583
0.99176195
0.95228485
0.94544217
0.98555403
0.98535846
0.98629323
0.98691148
0.98747993
0.98829511
0.94045989
0.95464503
0.98641822
0.98780361
0.94419652
0.9474865
0.95155233
0.95703579
0.95643796
0.95917609
0.95871792
0.95863652
0.96573012
0.96621022
0.96073703
0.96467506
0.96693074
0.96949922
0.96613678
0.96994845
0.96795099
0.98287052
0.97890704
0.98873766
0.97230714
0.98737484
0.99356903
0.99445646
0.98703084
0.99395032
1.0076715
0.99960718
0.9992318
0.98771827
0.98856548
0.99090578
0.98623688
0.98312246
0.96148007
0.98008149
0.96654028
0.99656274
0.97065633
0.97025009
0.9953355
0.99344422
0.99917516
0.95947395
0.93999791
0.94868536
0.94926013
0.93330609
0.94599303
0.93760453
0.96739358
0.99029983
0.96819249
0.96581403
0.98850862
0.99121318
0.97611136
0.98163816
1.0060578
0.99995966
0.96646593
0.9651195
0.98909675
0.98976084
0.96422132
0.94634526
0.92789042
1.0077378
0.99057747
0.98691565
1.0108906
0.97041473
0.9912422
0.95215282
0.97346315
0.98592083
1.0087768
0.99123421
0.96890342
0.95591533
0.97073083
0.9950517
0.97977432
1.0255073
1.00051
1.0198456
1.0068936
1.0154083
0.98076709
0.99894476
0.99775538
1.0080731
1.0080737
0.95983942
0.96352754
0.98629209
0.98345134
1.0054743
0.98480249
1.0025172
0.94209664
0.97370527
0.97702414
0.9481668
0.97364765
0.97673825
0.96342062
0.97386509
0.97638479
0.96760573
0.97397332
0.97633928
0.97757434
0.97421797
0.97621359
0.98009976
0.97425667
0.97615515
0.9857555
0.97422338
0.97589544
0.97416335
0.97577863
0.973876
0.97536148
0.973769
0.97521841
0.97347033
0.97483529
0.97627986
0.97356235
0.9773037
0.97584026
0.99284069
0.98552486
0.98461775
0.96374994
1.0022299
0.94051283
0.93149553
0.99556388
1.0082628
0.95310747
0.95802423
1.0238324
0.95231547
0.93712187
0.98894039
0.98564697
0.95610599
0.99140319
0.98640818
0.98514303
0.98530737
0.98446596
0.95940501
0.96268667
1.0011764
1.0155555
0.99086984
0.99242209
0.9898136
0.99205794
0.98839549
0.98782238
0.9846943
0.98562956
0.98108051
0.97961125
0.98727501
0.96695875
1.0006104
0.94488515
0.94407975
0.99664422
1.0107483
0.94829238
0.94885695
1.0200426
0.96340076
0.93577466
0.95919693
0.96609476
0.9704368
0.97336027
0.99361634
0.98796685
0.98344906
0.97809063
0.99924563
1.0020351
0.9526146
0.96076431
0.96945181
0.96564965
0.95182677
0.97842189
0.98074324
0.9860477
0.95425456
0.95275687
0.94847302
0.93832193
0.9265571
0.93261585
0.93248471
0.98612302
0.98800148
0.98831291
0.9854829
0.95982421
0.96038206
0.96173691
0.96560579
0.95291779
0.95842552
0.95005285
0.95129515
0.98052372
0.98043763
0.98556276
0.98492369
0.96778968
0.96419406
0.96824276
0.96810254
0.97093368
0.96669966
0.96705278
0.97118949
0.97188097
0.97391757
0.97171958
0.97309359
0.98326671
0.99664421
0.98609847
0.98889644
1.0022898
1.0007795
1.016912
1.0038917
1.0147103
1.0133849
0.96554905
1.0034858
0.97789557
1.0057351
1.0093781
0.99508002
0.98909232
0.9900762
0.98735433
0.96061632
0.95456942
0.95921226
0.99032117
0.98786068
0.98696514
0.9842967
0.98509485
0.98109693
0.98137811
0.98267737
0.98233804
0.96870548
0.99895227
0.97752338
0.98997299
0.98597995
0.96248638
0.9792023
0.98589793
0.98419281
0.98528663
0.9841373
0.95993008
0.96371628
0.96421635
0.966816
0.96160204
0.96580988
1.0041765
0.99953557
1.0023352
1.0127643
1.0127514
1.0102244
0.99114138
0.9563014
0.99380542
1.00029
0.95097118
0.9808548
0.98190294
0.97646318
0.97460501
1.0036881
0.99907106
0.99357398
0.98525696
0.98454999
0.97131333
0.97641586
0.93310029
0.98601697
0.98704165
0.99039754
0.98965842
0.98200898
0.9858692
0.98680196
0.98976087
0.9779765
0.98035383
0.97801487
0.98348897
0.97966531
0.97352538
0.97143245
0.97081306
0.98789658
0.98702532
0.98061939
0.98246577
1.005388
1.0037704
0.99778808
0.99445214
0.97550503
0.97510845
0.97338331
0.97376293
0.99568377
0.99787568
0.97219996
0.97652646
0.97372078
)
;
    }
    air_to_vegetation
    {
        type            calculated;
        value           nonuniform List<scalar> 0();
    }
    procBoundary19to16
    {
        type            processor;
        value           uniform 0;
    }
    procBoundary19to17
    {
        type            processor;
        value           uniform 0;
    }
    procBoundary19to18
    {
        type            processor;
        value           uniform 0;
    }
}


// ************************************************************************* //
