/*--------------------------------*- C++ -*----------------------------------*\
  =========                 |
  \\      /  F ield         | OpenFOAM: The Open Source CFD Toolbox
   \\    /   O peration     | Website:  https://openfoam.org
    \\  /    A nd           | Version:  8
     \\/     M anipulation  |
\*---------------------------------------------------------------------------*/
/*   Windows 32 and 64 bit porting by blueCAPE: http://www.bluecape.com.pt   *\
|  Based on Windows porting (2.0.x v4) by Symscape: http://www.symscape.com   |
\*---------------------------------------------------------------------------*/
FoamFile
{
    version     2.0;
    format      ascii;
    class       volScalarField;
    location    "0/vegetation";
    object      viewFactorField;
}
// * * * * * * * * * * * * * * * * * * * * * * * * * * * * * * * * * * * * * //

dimensions      [0 0 0 0 0 0 0];

internalField   uniform 0;

boundaryField
{
    left
    {
        type            calculated;
        value           nonuniform List<scalar> 0();
    }
    right
    {
        type            calculated;
        value           nonuniform List<scalar> 0();
    }
    back
    {
        type            calculated;
        value           nonuniform List<scalar> 0();
    }
    front
    {
        type            calculated;
        value           nonuniform List<scalar> 0();
    }
    bottom
    {
        type            calculated;
        value           nonuniform List<scalar> 
289
(
0.99300562
1.02853
0.94805049
0.9901682
1.0198582
0.92152098
0.85793287
0.94605406
1.02853
0.99300562
0.94974633
0.99945987
1.0198582
0.967454
0.94974633
0.38923752
0.9901682
1.0198582
0.9901682
1.0939154
0.92416214
1.0453689
1.076601
0.93560615
0.934378
0.9968629
1.0068981
1.0697599
0.46376098
0.47377501
0.88337294
0.97619838
1.0939154
0.36538015
1.0217429
0.38923752
0.44483725
1.0217429
1.0973703
0.93352436
1.0453689
1.0453689
0.46376098
0.91332979
0.91332979
0.97272485
0.97272485
0.47377501
0.97619838
0.97619838
0.9901682
1.058005
0.99897641
1.0326967
1.076601
1.076601
1.076601
0.94669763
0.44483725
0.94669763
0.88281394
0.99945987
0.93266207
0.967454
0.967454
0.967454
0.81917875
0.81917875
0.94974633
1.0907476
1.0907476
0.38923752
0.97619838
0.97619838
0.46376098
0.46376098
0.46376098
0.47377501
0.47377501
0.47377501
0.37558287
1.1344627
1.058005
0.83731092
0.68952026
0.36538015
0.38923752
0.33314662
0.44483725
0.33314662
1.0835458
1.1174379
1.0973703
0.93266207
1.1174379
1.0835458
0.46376098
0.81917875
0.81917875
1.0907476
1.0907476
0.47377501
0.93876537
0.99897641
1.02853
1.0995378
1.1344627
1.1211226
1.0217429
1.1174379
0.99300562
0.9901682
0.9968629
0.9968629
1.0939154
1.0326967
1.0326967
0.37558287
0.55044233
1.0939154
0.73102437
0.64116444
0.36538015
1.1211226
1.1344627
0.83731092
0.36538015
0.38923752
0.37558287
0.44483725
0.44483725
0.44483725
0.86161724
1.0973703
1.1174379
1.0217429
0.93352436
0.93352436
0.93352436
0.99483445
0.73102437
0.94669763
0.55044233
0.55044233
0.37558287
0.36538015
0.64116444
0.55044233
0.36538015
0.38923752
0.33314662
0.44483725
0.33314662
1.0835458
0.86161724
0.86161724
1.0681418
1.0681418
1.0835458
0.99300562
0.99945987
0.93876537
0.94805049
0.94805049
0.94805049
0.9901682
0.9901682
0.9901682
1.0198582
1.0198582
1.0198582
0.92152098
0.92152098
0.92152098
0.85793287
0.85793287
0.85793287
0.94605406
0.94605406
0.94605406
0.94974633
0.99945987
0.94974633
0.99945987
0.99945987
0.99945987
0.93876537
0.99945987
1.0198582
1.0068981
1.0068981
0.93876537
0.92416214
0.92416214
0.92416214
1.0453689
1.0453689
0.92416214
0.93560615
0.93560615
0.93560615
0.934378
0.934378
0.934378
0.75253107
0.75253107
0.9968629
1.0068981
0.75253107
0.75253107
1.0697599
1.0697599
1.0697599
0.88337294
0.88337294
0.88337294
0.86161724
0.98804912
1.0973703
0.91332979
0.81917875
1.0697599
0.88281394
0.81917875
0.91332979
0.97272485
0.97272485
1.0326967
0.97272485
0.97272485
0.97272485
0.99897641
0.99897641
1.058005
1.0326967
1.0326967
1.0326967
0.94669763
0.99483445
0.94669763
0.73102437
0.99483445
0.94669763
0.94669763
0.94669763
0.94669763
0.88281394
0.88281394
0.88281394
0.93266207
0.99945987
0.99945987
1.1344627
1.1504215
1.1504215
1.058005
1.1504215
1.1504215
0.64116444
0.64116444
0.73102437
0.68952026
0.68952026
0.68952026
0.98804912
0.98804912
1.1174379
1.0973703
0.98804912
0.98804912
1.0681418
1.0681418
0.93266207
1.1174379
1.0681418
1.0681418
1.0995378
1.0995378
1.02853
1.1211226
1.0995378
1.1344627
0.83731092
0.83731092
1.1211226
0.73102437
0.99483445
0.99483445
0.99483445
)
;
    }
    top
    {
        type            calculated;
        value           uniform 1.0499126;
    }
    tower
    {
        type            calculated;
        value           nonuniform List<scalar> 
420
(
1.0176928
1.0300636
0.99699866
1.0203832
0.96981422
0.9667159
0.90021204
0.9718315
0.90304712
0.91789733
0.96708323
0.9593081
0.97546615
1.002168
0.96757195
0.9759261
0.90667653
0.89544937
0.91559588
0.98083783
1.0018139
0.99161357
0.99297897
0.99723254
1.0021973
0.97692436
0.98521311
0.97647434
1.0054915
0.99423372
0.9947705
0.97440338
0.99313144
0.97709603
0.97900827
0.98146113
0.97463065
0.96713713
0.95925726
0.96520756
0.93465225
0.96788
0.93856411
0.96590151
0.96863827
0.9692929
0.98368116
0.95753677
0.98449306
0.99455898
1.0010271
0.98772132
1.0110753
1.0092013
0.99039314
0.98839792
1.0097773
0.99352757
0.99882558
1.0003256
0.98498691
0.99462395
0.99616755
0.98959514
0.97497041
0.99680395
0.97282014
0.99187731
0.997693
0.99391385
0.98699784
0.99574429
0.99480267
0.91518929
0.90215447
0.87040329
0.8675308
0.86332878
0.97034419
0.93784926
0.9652908
0.84520082
0.74768571
0.81647195
0.78143269
0.81166921
0.92392017
0.85416582
0.77264242
0.92343869
0.78014357
0.9747129
0.97085756
1.0310181
0.97155228
0.85979772
0.97299259
0.85066387
1.0019693
0.98631511
0.81350776
0.95532973
0.93357418
0.86993782
0.86292587
0.88499154
0.89802736
0.7971364
0.77674507
0.77984794
0.80208068
0.95122759
0.76483071
0.77406753
0.82246223
0.79660786
0.79330874
0.97096207
0.92061744
0.9315529
0.93023954
0.93119757
0.96141455
0.95327072
1.0382791
0.87828885
1.0422032
1.0055381
1.0218893
0.97661318
0.9040521
0.97101938
0.93503932
0.95865555
0.93952464
0.9375817
0.89705787
0.866915
0.86954915
0.88679063
0.8609358
0.85665359
0.82474727
0.79554158
0.84747593
0.82291658
0.7832551
0.78105821
0.7951076
0.82737952
0.84803713
0.84825618
0.95679463
0.87741184
0.8588084
0.95561893
0.94736049
0.93409702
0.87515241
0.91144689
0.87284586
0.87696111
0.84370029
0.83211316
0.84743335
0.8469577
0.96440154
0.969696
0.98154412
0.96948676
0.89112593
0.89123467
0.79350184
0.81309817
0.74337345
0.74984974
0.78301715
0.7581253
1.0136665
1.0230244
0.9275462
0.84526895
0.79621497
0.79913377
0.90652569
0.8840806
0.80752713
0.7692179
0.95722065
0.94588722
0.88684143
0.8881056
0.95243937
0.9553572
0.89045899
0.89160792
0.87924904
0.90186263
0.88663915
0.8592838
0.99444354
0.96067791
0.97518454
0.98661716
0.98589853
0.97824909
0.992616
0.98689923
0.82798127
0.79267786
0.80261869
0.83804112
0.83590427
0.8256355
0.82847326
0.79770325
0.94510311
0.9280668
0.92655343
0.90328592
0.81398295
0.83916069
0.87030302
0.83682444
0.92592387
0.91923561
0.92896165
0.92913844
0.91374205
0.90846012
0.97747508
0.97256266
1.0309843
1.0304946
1.0111564
0.89020586
0.93420111
0.9593306
0.90677471
0.97883337
0.89501363
0.96070805
0.97448093
0.99204241
0.97384277
0.960452
0.96899233
0.96890807
0.96513542
0.91532768
0.93837861
0.81787696
0.93071461
1.0015467
0.98490395
1.0064912
1.0034984
0.99303915
0.99547828
0.99947274
0.99053435
0.87235276
0.87085024
0.85624393
0.85400224
0.87092993
0.83861444
0.8525761
0.84793939
0.84142187
0.85308139
0.81901254
0.80724166
0.82792344
0.79706863
0.83036852
0.86914605
0.78804441
0.92441163
0.83048664
0.78871482
0.87622271
0.82074745
0.80973893
0.7907412
0.83350291
0.78468605
0.78362504
0.77534311
0.76626169
0.79519681
0.77881954
0.77580298
0.78058414
0.78408954
0.77616049
0.85048738
0.82486112
0.82964251
0.88518295
0.86611631
0.82151983
0.83951373
0.82264545
0.91018897
0.85334756
0.90305096
0.84775965
0.90084453
0.84791769
0.92430337
0.85006055
0.84849216
0.90881238
0.91497955
0.91607698
0.88736254
0.89057884
0.88438407
0.88436502
0.93969683
0.94247209
0.88154279
0.88971957
0.90290787
0.89096707
0.9372466
0.94186113
0.94267557
0.93462722
0.93215147
0.94687693
0.8723572
0.83112457
0.89215946
0.80018316
0.91558252
0.93681691
0.9191964
0.87292316
0.98234851
0.87239347
0.86864348
0.97037625
0.90829862
0.95151061
0.87474431
0.8795206
0.91685298
0.9323368
0.90543935
0.89607173
0.96092625
0.98323507
0.97967552
0.95657124
0.97427772
0.96433373
0.98063348
0.96016593
0.95869249
0.94786952
0.94959782
0.94232377
0.98786101
0.97013338
0.94431006
0.97760004
0.98881569
0.97960293
0.96798917
0.97838202
0.98175113
0.97608597
0.96605065
0.96547644
0.98932049
0.99125813
0.98805908
0.94094664
0.85234288
0.85637605
0.87558442
0.83561
0.80483837
0.76175862
0.76587462
0.76687318
0.74138329
0.75467403
0.74008642
0.74070762
0.80376257
0.80226555
0.8199961
0.76805751
0.84621036
0.82243316
0.83744946
0.83247075
0.85060031
0.79099694
0.81208889
0.7989481
0.83448183
0.81770462
0.82939784
0.78635275
0.82040165
0.81419356
0.82960424
0.80962719
0.7969071
0.783237
0.79407147
0.75652936
0.81480526
0.79642083
0.82556405
0.81411465
)
;
    }
    air_to_vegetation
    {
        type            calculated;
        value           nonuniform List<scalar> 
624
(
0.82652734
0.98940964
0.99996552
0.99996552
0.99996552
0.99996552
1.0129276
1.1249496
1.1249496
1.1249496
0.99996552
1.0127425
1.0129276
1.0129276
1.0049875
1.048912
0.98940964
0.98940964
0.98940964
1.048912
1.0049875
1.048912
1.048912
0.82652734
0.82652734
1.0049875
1.0049875
1.0119041
0.9376356
0.9376356
0.99996552
1.0049875
0.99850198
0.99880983
1.0129276
0.98940964
0.98940964
0.82652734
1.0127425
1.0127425
1.1249496
1.0129276
1.1249496
1.0127425
0.99996552
0.99996552
0.99996552
0.99996552
0.99996552
0.99996552
0.99996552
1.0049875
1.048912
0.82652734
1.0049875
1.0049875
0.98940964
0.98940964
0.98940964
0.98940964
0.98940964
1.0127425
0.9376356
0.9376356
0.95796957
0.9376356
0.9376356
0.95796957
0.9376356
1.0127425
0.99996552
0.99880983
0.99880983
0.95796957
0.9376356
0.95796957
0.99880983
0.99880983
0.99880983
0.99880983
0.95796957
0.82652734
1.0119041
0.99850198
1.0119041
0.98940964
1.0119041
1.0119041
0.98940964
0.98940964
1.0119041
1.0119041
1.0119041
0.99850198
0.99996552
0.99996552
0.99996552
0.99996552
0.99996552
0.99996552
0.99996552
0.99996552
1.0129276
0.99996552
0.99996552
1.0129276
1.0129276
1.0129276
1.0129276
0.99996552
0.99996552
1.0129276
0.99996552
1.0129276
1.1249496
1.1249496
1.1249496
1.1249496
1.1249496
1.1249496
1.1249496
1.1249496
1.1249496
1.1249496
1.1249496
1.1249496
1.0127425
1.0127425
1.0127425
1.0127425
1.0127425
1.0129276
1.0129276
1.0129276
1.0129276
0.98940964
1.0049875
0.98940964
0.98940964
0.98940964
1.048912
0.98940964
0.98940964
0.98940964
0.98940964
0.98940964
0.98940964
0.98940964
0.98940964
0.98940964
0.98940964
0.98940964
0.98940964
0.98940964
0.98940964
0.98940964
0.98940964
0.98940964
0.98940964
1.048912
1.048912
1.048912
1.0049875
1.0049875
1.0049875
1.048912
1.0049875
1.0049875
1.048912
1.048912
1.048912
0.82652734
0.82652734
0.82652734
0.82652734
0.82652734
0.98940964
1.0049875
0.82652734
0.82652734
0.82652734
1.0127425
0.82652734
1.0127425
0.99996552
0.99880983
0.99996552
0.99880983
0.99880983
0.98940964
0.98940964
0.98940964
0.98940964
0.98940964
0.98940964
0.98940964
0.98940964
0.98940964
0.98940964
1.0127425
0.98940964
0.98940964
0.98940964
0.9376356
0.9376356
0.9376356
0.9376356
0.9376356
1.0127425
1.0127425
0.99850198
0.99850198
0.99850198
0.99850198
0.99850198
0.99850198
0.99850198
1.0119041
0.99880983
1.0127425
1.0127425
1.0127425
1.0127425
1.1249496
1.0129276
1.0129276
1.1249496
1.1249496
1.1249496
1.0127425
1.0049875
1.0049875
0.82652734
1.048912
1.0049875
1.0049875
1.0049875
1.0049875
1.048912
1.0049875
1.0049875
1.048912
1.0127425
1.0127425
1.0127425
0.9376356
1.0127425
0.9376356
0.9376356
0.9376356
0.9376356
0.9376356
0.9376356
0.9376356
0.95796957
0.9376356
0.9376356
0.9376356
0.9376356
0.9376356
1.0127425
1.0127425
1.0127425
0.99996552
0.99880983
0.99880983
0.95796957
0.9376356
0.95796957
0.95796957
0.95796957
0.95796957
0.95796957
0.95796957
0.95796957
0.99880983
0.99880983
0.99880983
0.99880983
1.0129276
0.95796957
0.95796957
0.95796957
0.99880983
0.95796957
0.95796957
0.99880983
0.99880983
0.99880983
0.99880983
1.0119041
1.0119041
1.0119041
1.0119041
1.0119041
0.99850198
0.99850198
0.99850198
0.99850198
0.99850198
1.0119041
1.0119041
1.0119041
1.0119041
1.0119041
1.0119041
0.98940964
1.0119041
1.0119041
1.0119041
1.0119041
1.0119041
1.0119041
1.0119041
1.0119041
0.98940964
0.98940964
0.98940964
0.98940964
0.98940964
0.98940964
1.0119041
1.0119041
1.0119041
0.98940964
0.98940964
0.98940964
0.98940964
0.98940964
1.0127425
1.0127425
0.99850198
0.99850198
0.99850198
0.99850198
0.99850198
0.99850198
0.99850198
0.82652734
0.82652734
0.99880983
1.0127425
1.0127425
0.82652734
1.1249496
1.048912
0.99996552
1.1249496
1.1249496
0.99996552
1.048912
1.048912
1.048912
1.048912
1.048912
1.048912
1.0049875
1.0119041
1.0129276
1.0129276
1.0129276
1.0127425
1.0127425
0.82652734
0.82652734
0.82652734
0.82652734
1.1249496
1.0049875
1.048912
1.0049875
1.0049875
0.98940964
1.048912
0.82652734
0.82652734
0.82652734
0.82652734
0.82652734
0.9376356
0.9376356
0.95796957
0.9376356
0.9376356
0.9376356
1.0129276
0.95796957
1.0119041
1.0119041
1.0049875
1.0119041
1.0119041
1.0119041
1.0119041
1.0119041
1.0119041
0.99850198
0.98940964
0.98940964
1.0119041
0.98940964
1.0119041
1.0119041
0.98940964
1.0119041
0.99996552
0.99996552
0.99996552
0.99996552
0.99996552
1.0129276
1.0129276
1.0129276
1.0129276
0.99996552
1.0129276
1.1249496
1.1249496
1.1249496
1.0127425
1.1249496
1.1249496
1.0127425
1.1249496
1.1249496
0.99996552
1.1249496
1.0129276
1.0129276
1.0129276
1.0129276
1.0129276
1.0129276
0.98940964
0.98940964
0.98940964
1.048912
0.98940964
0.98940964
0.98940964
1.048912
0.82652734
0.82652734
0.82652734
1.048912
0.82652734
0.82652734
0.82652734
0.82652734
1.048912
1.048912
1.048912
1.048912
1.048912
1.048912
0.98940964
0.98940964
0.98940964
0.98940964
0.98940964
0.98940964
0.98940964
0.98940964
0.98940964
0.98940964
1.0049875
0.98940964
0.98940964
0.98940964
0.82652734
0.82652734
0.82652734
0.82652734
0.99850198
1.0127425
1.0127425
1.0127425
1.0127425
0.82652734
0.82652734
0.82652734
1.0127425
1.0127425
1.0127425
0.99996552
0.99996552
1.0127425
1.0127425
1.0127425
0.99850198
0.99850198
0.99850198
1.0119041
0.99850198
0.99850198
0.99850198
1.0119041
1.0127425
1.0127425
1.0127425
1.1249496
1.1249496
1.0129276
1.1249496
1.1249496
1.1249496
1.1249496
1.1249496
0.99850198
1.048912
1.048912
0.82652734
1.048912
0.82652734
0.82652734
1.0049875
1.0049875
1.0049875
1.048912
1.0049875
1.0049875
1.0127425
0.9376356
0.9376356
0.9376356
0.9376356
0.9376356
0.95796957
0.95796957
0.9376356
0.9376356
0.95796957
0.95796957
0.9376356
0.95796957
1.0127425
1.0127425
0.99880983
0.99880983
0.99880983
0.99880983
0.99880983
0.99880983
0.99880983
0.99880983
0.99880983
1.0129276
0.95796957
0.99880983
0.99880983
0.95796957
0.95796957
0.95796957
0.99880983
0.99880983
0.99880983
0.95796957
0.95796957
0.95796957
0.95796957
0.95796957
0.99850198
1.0049875
1.0119041
1.0119041
1.0119041
1.0049875
1.0049875
1.0119041
0.99850198
0.99850198
0.99850198
0.99850198
0.99850198
1.0119041
1.0119041
1.0119041
1.0119041
1.0119041
1.0119041
1.0119041
1.0119041
1.0119041
1.0119041
1.0119041
1.0119041
1.0119041
0.98940964
0.98940964
0.98940964
1.0119041
1.0119041
0.98940964
1.0119041
1.0119041
1.0119041
1.0119041
0.98940964
1.0119041
1.0119041
1.0119041
1.0119041
1.0119041
0.98940964
0.98940964
0.98940964
0.98940964
1.0127425
1.0127425
1.0127425
1.0127425
1.0127425
0.99850198
0.99850198
0.99850198
0.95796957
1.0119041
1.0119041
1.0127425
1.0127425
0.99880983
0.99880983
0.95796957
1.0119041
)
;
    }
    procBoundary6to0
    {
        type            processor;
        value           uniform 0;
    }
    procBoundary6to1
    {
        type            processor;
        value           uniform 0;
    }
    procBoundary6to4
    {
        type            processor;
        value           uniform 0;
    }
    procBoundary6to5
    {
        type            processor;
        value           uniform 0;
    }
    procBoundary6to7
    {
        type            processor;
        value           uniform 0;
    }
    procBoundary6to8
    {
        type            processor;
        value           uniform 0;
    }
    procBoundary6to9
    {
        type            processor;
        value           uniform 0;
    }
}


// ************************************************************************* //
