/*--------------------------------*- C++ -*----------------------------------*\
  =========                 |
  \\      /  F ield         | OpenFOAM: The Open Source CFD Toolbox
   \\    /   O peration     | Website:  https://openfoam.org
    \\  /    A nd           | Version:  8
     \\/     M anipulation  |
\*---------------------------------------------------------------------------*/
/*   Windows 32 and 64 bit porting by blueCAPE: http://www.bluecape.com.pt   *\
|  Based on Windows porting (2.0.x v4) by Symscape: http://www.symscape.com   |
\*---------------------------------------------------------------------------*/
FoamFile
{
    version     2.0;
    format      ascii;
    class       volScalarField;
    location    "0/vegetation";
    object      viewFactorField;
}
// * * * * * * * * * * * * * * * * * * * * * * * * * * * * * * * * * * * * * //

dimensions      [0 0 0 0 0 0 0];

internalField   uniform 0;

boundaryField
{
    left
    {
        type            calculated;
        value           nonuniform List<scalar> 0();
    }
    right
    {
        type            calculated;
        value           nonuniform List<scalar> 0();
    }
    back
    {
        type            calculated;
        value           nonuniform List<scalar> 0();
    }
    front
    {
        type            calculated;
        value           nonuniform List<scalar> 0();
    }
    bottom
    {
        type            calculated;
        value           nonuniform List<scalar> 
543
(
1.2375916
1.2375916
1.1885208
1.2500545
1.1734562
1.1885208
1.2500545
1.0996208
1.0830152
1.0669161
1.0830152
1.1734562
1.0830152
1.0503088
1.1707149
1.2935229
1.2797351
1.2797351
1.2935229
1.2435488
1.0830152
1.2935229
1.2435488
1.2935229
1.1636801
1.1734562
1.1042697
1.1373573
1.3028655
1.3028655
1.3028655
1.0533507
1.1042697
1.1483174
1.2686748
1.2686748
1.1734562
1.0669161
1.1636801
1.3028655
1.25341
1.25341
1.2500545
1.25341
1.2797351
1.2797351
1.2686748
1.2686748
1.2435488
1.2435488
1.2435488
1.25341
1.1636801
1.1636801
1.2435488
1.1483174
1.1483174
1.1636801
1.1483174
1.2935229
1.1707149
1.0503088
1.0582912
1.1636801
1.1707149
1.1636801
1.0996208
1.1042697
1.0996208
1.0503088
1.1042697
1.0503088
1.0533507
1.0533507
1.0533507
1.3459737
1.0996208
1.2760026
1.2743879
1.306138
1.2193601
1.2193601
1.2500545
1.2743879
1.1885208
1.2574009
1.2574009
1.1902917
1.2743879
1.3160174
1.1902917
1.2574009
1.2277468
1.2277468
1.1902917
1.2277468
1.2574009
1.3459737
1.3459737
1.306138
1.306138
1.306138
1.1373573
1.1373573
1.1885208
1.2500545
1.2500545
1.2574009
1.3160174
1.3160174
1.3160174
1.3459737
0.99701729
1.0669161
1.0669161
1.0834996
1.0830152
1.2375916
1.2375916
1.1206472
1.1154783
1.2219184
1.1154783
1.1173355
1.2799299
1.2151946
1.2760026
1.0586187
1.1292098
1.2965233
1.2151946
1.1938253
1.2760026
1.2743879
1.1819658
1.1819658
1.0276798
1.1292098
1.1154783
1.2219184
1.1784239
1.2010213
1.1173355
1.1938253
1.2010213
1.1784239
1.0586187
1.2031326
1.2965233
1.1292098
1.2031326
1.0822503
1.2888691
1.2888691
1.1910791
1.0822503
1.1369515
1.1369515
1.1784239
1.1369515
1.0822503
1.143658
1.1369515
1.1784239
1.0801716
1.0801716
1.0586187
1.2088434
1.2088434
1.2031326
1.2965233
1.2088434
1.2088434
1.0102115
1.0582912
1.1167685
1.0458918
1.0416084
1.0948629
1.0503088
1.0564043
1.2002156
1.0416084
1.0458918
1.0102115
1.0117381
0.99701729
1.0582912
1.0582912
1.0948629
1.0959029
1.108707
1.0276798
1.0169355
1.0564043
1.0416084
1.0834996
1.1707149
1.0597453
1.052553
1.0732692
1.1167685
0.99701729
0.99701729
1.2012948
1.0710795
1.1459327
1.0458918
1.108707
1.0959029
1.0959029
1.0959029
1.0923938
1.0555441
1.0183513
1.0609726
1.1819658
1.1673184
1.2002156
1.1206472
1.1487816
1.143658
1.0794543
1.1190445
1.1489026
1.1459327
1.0710795
1.0276798
1.0609726
1.0311423
1.052553
1.0219026
1.0107668
1.2012948
1.0732692
1.0732692
1.052553
1.1539767
1.1539767
1.2012948
1.0923938
1.0142274
1.0609726
1.1167685
1.1496959
1.174196
1.1173355
1.174196
1.077541
1.1183773
1.1496959
1.1496959
1.1496959
1.1173355
1.2105266
1.2105266
1.0555441
1.1170651
1.0609537
1.1521169
1.1978439
1.1978439
1.2219184
1.143658
1.1978439
1.1978439
1.0564043
1.1190445
1.0794543
1.0597453
1.0597453
1.0555441
1.0555441
1.0107668
1.0107668
1.1489026
1.1489026
1.1190445
1.1521169
1.0609537
1.1183773
1.174196
1.1170651
1.1521169
1.077541
1.077541
1.077541
1.1521169
1.1422333
1.1422333
1.2002156
1.1673184
1.0169355
1.108707
1.0710795
1.0959029
1.0794543
1.1489026
1.0794543
1.2012948
1.0574822
1.0574822
1.2497088
1.2497088
1.1154783
1.2219184
1.2167189
1.2167189
1.0586187
1.0801716
1.2497088
1.2215323
1.2497088
1.2965233
1.2151946
1.2497088
1.2215323
1.1938253
1.1938253
1.2360843
1.0276798
1.1489026
1.1489026
1.2167189
1.2167189
1.2080392
1.2031326
1.1292098
1.1292098
1.0822503
1.1292098
1.0801716
1.2888691
1.1910791
1.2760026
1.1910791
1.1910791
1.2888691
1.1487816
1.1487816
1.1487816
1.1167685
1.1459327
1.1459327
1.0416084
1.0834996
1.0834996
1.0169355
1.0416084
1.0169355
1.0416084
1.0416084
1.0564043
1.0948629
1.0948629
1.052553
1.0597453
1.0597453
1.1167685
1.1167685
1.1167685
0.99701729
1.0117381
0.99701729
1.0710795
1.1539767
1.1539767
1.0458918
1.0458918
1.0959029
1.0923938
1.0959029
1.0959029
1.0183513
1.0183513
1.0183513
1.1819658
1.2002156
1.1819658
1.2002156
1.2002156
1.1673184
1.1206472
1.1206472
1.143658
1.1489026
1.1489026
1.1489026
1.0609726
1.0311423
1.0609726
1.0219026
1.0219026
1.0219026
1.0574822
1.0574822
1.0107668
1.0923938
1.0923938
1.0923938
1.0142274
1.0142274
1.0142274
1.2105266
1.2105266
1.174196
1.1183773
1.1183773
1.1183773
1.1929462
1.2105266
1.2105266
1.1170651
1.1170651
1.1170651
1.0609537
1.0609537
1.1170651
1.1190445
1.0564043
1.0564043
1.0564043
1.0564043
1.0794543
1.1422333
1.1422333
1.1167685
1.1673184
1.2002156
1.2002156
1.2080392
1.2360843
1.2151946
1.0416084
1.0102115
1.0416084
1.0458918
1.0102115
1.0458918
1.0959029
1.0458918
1.108707
1.0311423
1.0311423
1.0183513
1.052553
1.052553
1.0732692
1.1929462
1.0117381
1.0117381
1.0117381
1.0582912
1.0582912
1.0582912
1.2215323
1.2856944
1.2499077
1.2215323
1.2760026
1.2499077
1.1758196
1.1758196
0.70993842
1.1225983
1.1225983
1.1225983
1.1758196
1.1758196
1.2111743
1.2010213
1.2010213
0.70993842
1.2080392
1.2080392
0.70993842
1.2360843
1.2360843
1.2799299
1.2394271
1.2394271
1.2394271
1.1938253
1.1938253
1.1938253
1.2799299
1.2799299
1.2799299
1.2010213
1.2010213
0.70993842
1.2111743
1.2111743
1.2111743
1.1929462
1.1929462
1.2111743
1.1496959
1.1496959
1.1225983
1.2394271
1.2394271
1.2394271
1.2499077
1.2499077
1.2856944
1.2856944
1.2856944
1.2727825
1.2014279
1.2014279
1.2727825
1.2727825
1.2727825
1.2727825
1.2415776
1.2415776
1.2415776
1.0893475
1.0893475
1.2014279
1.1303778
1.1902917
1.2193601
1.1373573
1.1303778
1.2193601
1.2014279
1.2277468
1.1902917
1.2014279
1.2415776
1.2014279
1.2727825
1.2415776
1.2415776
1.2415776
1.0893475
1.0893475
1.0893475
1.1303778
1.0996208
1.1303778
)
;
    }
    top
    {
        type            calculated;
        value           nonuniform List<scalar> 0();
    }
    Building
    {
        type            calculated;
        value           nonuniform List<scalar> 
223
(
1.0816639
1.0687269
0.99437575
1.0372585
0.98914818
1.072782
1.0801641
0.99406935
1.028382
1.0042529
1.0426938
0.99179779
0.95936831
0.91949049
0.96443055
0.96897452
0.95341505
0.9330415
0.97563931
1.0320944
0.97687642
1.0184451
0.98990704
0.97134474
0.99029932
0.97444822
0.970843
0.97713374
0.97028982
0.94797236
0.97026604
0.97367631
0.95726708
0.9689514
0.96872186
0.95490505
1.004102
0.97958529
0.97606861
0.93561136
0.93446099
0.95309678
0.95248367
0.94311239
0.97132413
0.9754221
0.94489353
0.97029387
0.92514252
0.9581308
0.92438479
0.93698652
0.94238022
0.94782511
0.96244147
0.96306649
0.96737979
0.93949631
0.96064616
0.97740368
0.95508844
0.98881251
0.99358554
0.95073232
1.0068596
0.94885
0.96176873
0.94889169
0.96589316
0.94663037
0.95386598
0.99891138
0.95278436
0.94686569
0.95123583
0.95064064
0.92815584
0.94478315
0.95762345
0.99391702
0.98372083
0.97715691
0.97497597
0.98890266
0.94244445
0.94326835
0.96146188
0.96512709
0.96603536
1.0042493
0.96593004
1.0016174
1.0424475
1.030018
0.99273381
1.1061558
0.99733702
1.0162582
0.96918041
0.96133442
0.99985302
1.2061733
0.98876161
0.9974206
0.95945865
0.99595012
0.95148266
0.97100158
0.96997595
0.98769193
0.96326165
1.1966348
0.96593628
0.99687752
0.96449604
0.9567794
0.98398279
1.0063333
0.94104641
0.96292217
0.95161062
0.98669183
0.94954155
0.95556286
0.96942416
0.96130813
0.96192311
0.99617156
1.0642323
1.0197282
1.0504932
0.9827529
0.97119657
0.97014679
1.0126025
0.98731253
0.97538604
0.94185892
0.94739554
0.98560159
0.95956798
0.96673139
0.93029723
0.97044093
0.97716251
0.94926374
0.96772761
0.96481849
0.96649104
0.95708748
0.95034991
0.95568539
0.95346075
0.95629278
0.99470132
0.9558463
0.9745248
0.97118443
0.96227715
0.93403348
0.95104424
0.95683479
0.99350112
1.0747862
1.0551665
1.0601927
0.9803865
0.94571098
0.93346599
0.94653593
0.93927242
1.0420641
1.0974681
1.0379123
0.98844577
0.97628767
0.95499567
0.96819947
0.97843572
1.066504
1.1127102
1.0102163
0.98890303
0.96702792
1.0481273
1.062685
1.061853
1.0484925
1.0211613
1.0274829
0.9979182
1.0027311
0.9650295
0.96342951
0.98858778
0.97784477
0.99527111
0.98217543
0.9991428
0.99277053
0.98644994
0.99637037
0.98710586
0.9787135
0.99327622
0.99634576
0.98401108
0.99452857
0.98622032
0.97507425
0.98731291
0.99156892
0.99905399
0.99543837
0.97705837
0.98548545
0.99680682
0.98646524
0.99295386
0.98629306
0.99532458
0.99564679
1.0007614
)
;
    }
    air_to_vegetation
    {
        type            calculated;
        value           nonuniform List<scalar> 
407
(
1.1893063
1.0856568
1.0856568
1.1051138
1.0856568
1.3522368
1.4161607
1.1893063
1.2863476
1.2863476
1.2863476
1.2863476
1.3522368
1.3522368
1.3522368
1.3522368
1.1804257
1.4161607
1.2863476
1.2863476
1.1804257
1.4161607
1.1804257
1.1051138
1.1893063
1.1307959
1.0856568
1.1328893
1.1328893
1.0174128
1.0174128
1.1328893
1.0494337
1.3522368
1.1307959
1.1307959
1.1307959
1.3522368
1.3522368
1.3522368
1.2694464
1.2694464
1.4161607
1.1893063
1.2694464
1.1051138
1.1804257
1.2694464
1.1804257
1.0494337
1.0174128
1.1051138
1.1328893
1.304298
1.0494337
1.1328893
1.304298
1.304298
1.304298
1.304298
1.0494337
1.1804257
1.1804257
1.1893063
1.0174128
1.0494337
1.26314
1.2884282
1.3668913
1.1521024
0.96731733
1.2330897
1.1018856
1.2330897
1.3668913
1.2884282
1.0622555
1.2884282
1.0622555
1.0739099
1.1018856
1.0858336
1.26314
1.2330897
1.3668913
1.3668913
1.6723141
1.26314
1.26314
1.1018856
1.2330897
1.2884282
1.1018856
1.1018856
1.1018856
1.0622555
1.0622555
1.0739099
1.0858336
0.96731733
1.0739099
0.96731733
1.2330897
1.0858336
0.96731733
1.2330897
1.287033
1.1220828
1.287033
1.1037473
1.1411381
1.1220828
1.1037473
1.1411381
1.2505633
1.2505633
1.287033
1.2505633
1.2505633
1.287033
1.5407939
1.3225214
1.1474989
1.2518665
1.5407939
1.3155128
1.5407939
1.5407939
1.2638281
1.287033
1.1710144
1.052671
1.1411381
1.1411381
1.3155128
1.3155128
1.3225214
1.1037473
1.1151357
1.1220828
1.1725004
1.0724097
1.1725004
1.1037473
1.1725004
1.1411381
1.2688469
1.5528139
1.097906
1.1125357
1.117855
1.1223774
1.114102
1.0474777
1.114102
1.2518665
1.1125357
1.2518665
1.1125357
1.1014167
1.1125357
1.117855
1.1014167
1.2688469
1.2688469
1.2688469
1.2888424
1.2888424
1.2888424
1.2506183
1.337906
1.2506183
1.1636248
1.5138324
1.5138324
1.1223774
1.1636248
1.337906
1.014134
1.014134
1.115557
1.106634
1.5528139
1.0837415
1.0898161
1.1858081
1.1827476
1.2876718
1.2876718
1.2876718
1.093336
1.117855
1.0641871
1.0347706
1.0641871
1.0347706
1.1223774
1.0903764
1.0903764
1.0903764
1.1223774
1.0270588
1.0837415
1.331213
1.331213
1.04787
1.1155167
1.1155167
1.1155167
1.1155167
1.0063007
1.1474989
1.1803535
1.093336
1.0973252
1.0973252
1.117855
1.0474777
1.114102
1.0474777
1.1710144
1.1725004
1.2638281
1.3155128
1.3225214
1.2638281
1.1220828
1.1710144
1.1710144
1.1710144
1.1037473
1.052671
1.052671
1.1710144
1.2638281
1.3225214
1.1411381
1.1151357
1.052671
1.3155128
1.3225214
1.1725004
1.1220828
1.1725004
1.1725004
1.1710144
1.0724097
1.1037473
1.1725004
1.1710144
1.0724097
1.0724097
1.1151357
1.1151357
1.1636248
1.1223774
1.1636248
1.337906
1.337906
1.337906
1.0711023
1.0711023
1.0898161
1.1858081
1.04787
1.0898161
1.0612235
1.0885404
1.114102
1.114102
1.0063007
1.114102
1.1474989
1.114102
1.0063007
1.114102
1.337906
1.2888424
1.5138324
1.106634
1.5138324
1.0885404
1.0612235
1.0898161
1.04787
1.0898161
1.1827476
1.1827476
1.1858081
1.1858081
1.1827476
1.0885404
1.0837415
1.0885404
1.5528139
1.5528139
1.5528139
1.04787
1.0474777
1.0063007
1.1474989
1.093336
1.2518665
1.115557
1.106634
1.2688469
1.106634
1.097906
1.0347706
1.0711023
1.0903764
1.2506183
1.097906
1.2506183
1.0641871
1.097906
1.0641871
1.097906
1.0347706
1.2888424
1.0270588
1.0270588
1.2888424
1.0270588
1.115557
1.115557
1.106634
1.106634
1.0837415
1.0837415
1.0837415
1.0612235
1.0549035
1.1679933
1.5528139
1.331213
1.331213
1.1679933
1.0549035
1.1679933
1.1679933
1.0612235
1.0549035
1.0549035
1.0549035
1.014134
1.014134
1.0549035
1.0549035
1.0814719
1.0474777
1.0814719
1.0814719
1.0487579
1.0814719
1.0474777
1.093336
1.0487579
1.0487579
1.0487579
1.1803535
1.1803535
1.1803535
1.2876718
1.1803535
1.1803535
1.1803535
1.0973252
1.1014167
1.0973252
1.117855
1.1014167
1.117855
1.0973252
1.0711023
1.1223774
1.1223774
1.3142178
1.2773954
1.3142178
1.3142178
1.3142178
1.2773954
1.4798359
1.6723141
1.6723141
1.4798359
1.4798359
1.6723141
1.2773954
1.4798359
1.1850212
1.2773954
1.1521024
1.1850212
1.1521024
1.6723141
1.1850212
1.1850212
1.0739099
1.6723141
1.4798359
1.1850212
1.1521024
1.1521024
1.4798359
1.0858336
)
;
    }
    procBoundary8to0
    {
        type            processor;
        value           uniform 0;
    }
    procBoundary8to1
    {
        type            processor;
        value           uniform 0;
    }
    procBoundary8to6
    {
        type            processor;
        value           uniform 0;
    }
    procBoundary8to7
    {
        type            processor;
        value           uniform 0;
    }
    procBoundary8to9
    {
        type            processor;
        value           uniform 0;
    }
}


// ************************************************************************* //
