/*--------------------------------*- C++ -*----------------------------------*\
  =========                 |
  \\      /  F ield         | OpenFOAM: The Open Source CFD Toolbox
   \\    /   O peration     | Website:  https://openfoam.org
    \\  /    A nd           | Version:  8
     \\/     M anipulation  |
\*---------------------------------------------------------------------------*/
/*   Windows 32 and 64 bit porting by blueCAPE: http://www.bluecape.com.pt   *\
|  Based on Windows porting (2.0.x v4) by Symscape: http://www.symscape.com   |
\*---------------------------------------------------------------------------*/
FoamFile
{
    version     2.0;
    format      ascii;
    class       volScalarField;
    location    "0/vegetation";
    object      viewFactorField;
}
// * * * * * * * * * * * * * * * * * * * * * * * * * * * * * * * * * * * * * //

dimensions      [0 0 0 0 0 0 0];

internalField   uniform 0;

boundaryField
{
    left
    {
        type            calculated;
        value           nonuniform List<scalar> 0();
    }
    right
    {
        type            calculated;
        value           nonuniform List<scalar> 0();
    }
    back
    {
        type            calculated;
        value           nonuniform List<scalar> 0();
    }
    front
    {
        type            calculated;
        value           nonuniform List<scalar> 0();
    }
    bottom
    {
        type            calculated;
        value           nonuniform List<scalar> 
92
(
0.99464332
1.0150656
1.0677651
1.087922
1.0889774
1.0787822
0.99464332
0.99464332
1.087922
1.169598
1.087922
1.0095446
1.0095446
1.0150656
1.0296449
1.0296449
1.1485582
1.0889774
1.0889774
1.087922
1.169598
1.0677651
0.99464332
0.99464332
1.0150656
1.0787822
1.0787822
1.0787822
1.0677651
1.0677651
1.0889774
1.0095446
1.0150656
1.0150656
1.0345163
1.0411969
1.0411969
1.0411969
1.1105468
1.1105468
1.1105468
1.2041259
1.2041259
1.1105468
1.169598
1.169598
1.169598
1.2041259
1.2041259
1.2041259
1.0095446
1.1485582
1.0296449
1.0296449
1.0345163
1.0677651
1.0222207
1.0345163
1.0222207
1.0222207
1.0677651
1.0241153
1.0241153
1.1485582
1.0222207
1.0345163
1.1005649
1.1005649
1.0222207
1.0283895
1.0283895
1.0362662
1.1005649
1.0222207
1.1005649
1.1005649
1.1485582
1.0283895
1.0283895
1.0283895
1.0362662
1.0362662
1.0362662
1.0241153
1.0241153
1.0241153
1.1708921
1.1708921
1.0411969
1.1708921
1.1708921
1.1708921
)
;
    }
    top
    {
        type            calculated;
        value           nonuniform List<scalar> 0();
    }
    Building
    {
        type            calculated;
        value           nonuniform List<scalar> 
760
(
1.0191389
1.0192544
1.0195317
1.0193646
1.019475
1.0196347
1.0195781
1.0191459
1.0190272
1.0194194
1.0194677
1.0195225
1.0195892
1.0196477
1.0196922
1.0197507
1.0193154
1.0194255
1.0193689
1.0192566
1.0187818
1.0189593
1.0188473
1.0186696
1.0197332
1.0196767
1.0195664
1.0196211
1.0192583
1.0193131
1.0192028
1.0193709
1.0194831
1.0195417
1.0194317
1.0188976
1.019075
1.0197906
1.0198491
0.9708633
1.0111629
1.0472803
1.0102451
1.0041499
1.0062747
1.0288214
1.0120729
1.01314
1.0032418
1.006404
1.0092435
1.0065329
1.0070126
1.0048985
1.0063321
1.0038511
1.0043824
1.0101967
1.0097215
0.9912659
1.0341933
1.0090766
1.0109161
1.0147937
1.0038023
1.0045145
1.0030124
1.0048224
1.0052993
1.0014551
1.0061921
1.0069476
1.0022494
1.0025972
1.0013175
1.0074443
1.0056019
1.0072339
1.0040832
1.0080383
1.0083646
1.0042813
1.0050937
1.0077645
1.002828
1.0053471
1.0077139
1.0013444
1.0005767
0.99452862
1.0038548
1.001855
0.99944275
0.99448571
1.0001778
1.001769
0.99441043
0.99433435
0.99882439
0.99456523
0.99981149
0.99985691
1.0190992
1.0017503
0.99767678
0.99534674
0.99637091
0.99634207
1.0036106
1.0027906
0.99504617
0.99513301
0.99600022
0.99493921
0.99458042
0.99503966
0.99484222
0.9947747
1.0194139
1.0183907
1.0184491
0.99818897
0.9973934
0.99924806
0.99663566
0.99778836
0.99963487
0.99826987
0.99465321
0.99641291
0.99486895
0.99888313
0.99457881
0.99832149
0.99676803
0.99451495
0.99447801
0.99477145
0.99437487
0.99565164
0.99564986
0.9967334
0.99594527
0.99562777
0.99514676
0.99476411
0.99533125
0.99447262
0.99533831
0.99568714
0.99565069
0.99789378
0.9971028
0.99705709
0.99692402
0.99820608
0.99785503
0.99597995
0.99507788
0.99767228
0.9977457
0.99634817
0.99681114
0.99726065
0.99486534
0.99929182
0.99830385
0.99776857
0.99479241
0.98916713
1.1896568
1.0122924
1.005376
1.0063239
1.0059838
1.0035778
1.0063604
1.0072583
1.0062241
1.0050566
0.99426349
0.99436785
0.99442519
0.99434551
0.99444941
1.002579
1.0026699
1.0016494
1.0007731
1.0000793
0.99926269
1.0004508
1.0001649
1.0029392
1.0011199
0.99705385
0.99675504
0.99599623
1.0057562
1.003985
1.0021714
0.99522748
0.99507353
0.99504061
0.99500829
0.99464773
0.99466437
0.99497804
0.99494918
0.99475109
0.99491168
0.99471315
0.99486109
0.99859333
0.99751648
0.99844477
0.99878588
0.99475552
0.99472619
0.99497088
0.994798
0.99460584
0.99450286
0.9946814
0.99775445
0.99902333
0.99724437
0.99991506
0.9993889
1.0053329
1.0079522
0.99448697
0.99441154
0.99425523
0.99445082
0.99459648
0.9945603
0.99463112
0.99468085
0.9947008
0.99172187
0.9944944
0.9956963
1.0005027
1.0090875
1.0092911
1.0083931
1.0099403
1.0072487
1.0070867
0.99535833
1.0117148
1.0083705
1.0088186
1.0165007
0.99677186
1.0126462
1.0320805
1.0030618
1.0033232
1.0041741
1.0022545
1.008851
1.011421
1.0068485
1.0016239
1.0007477
1.0059246
1.0058646
1.0050848
1.0069077
1.0049299
1.0062929
1.0040934
1.0060328
1.0039553
1.0049897
1.0071923
1.0000751
1.000885
0.99423739
0.99853514
0.99464261
0.99916761
1.018994
1.0191521
1.0190469
1.018335
1.0182526
1.0186973
1.0179311
1.0193107
1.0186077
1.0180055
1.0190468
1.0192033
1.0191514
1.0192048
1.0192558
1.0193082
1.0190939
1.0188201
1.0189196
0.99841863
0.99726544
0.99729332
0.99783889
0.99959386
0.99597912
1.0188901
1.0187879
0.99630611
1.0185914
1.0186884
1.0011572
1.0002275
0.99968069
1.0010418
1.0178192
1.0177439
0.99529861
0.99521418
0.99503244
1.0189946
1.0190995
0.99472522
0.9952774
1.0192027
0.99532783
1.0192575
1.0193608
0.99757737
1.0182264
1.0183143
0.9973813
1.0184967
1.0184044
0.99833845
1.0181408
1.0180572
1.0178965
1.0179758
0.9963324
0.99500801
0.99719351
0.99673787
0.99680722
0.99493718
0.99856706
0.99797452
0.99471824
1.0100911
1.0084396
1.0073573
1.0089638
1.0067735
1.0189418
1.0188893
1.0188393
1.019099
1.0189428
1.0189898
1.0179714
1.018074
1.018426
1.0182794
1.0183672
0.99883391
1.0181661
1.0181938
1.0181102
1.0001931
0.99670557
1.0187906
1.0186434
1.0187399
0.99634888
1.0178531
1.0178723
1.017797
0.9951722
1.0193043
1.0192543
0.99510875
0.99473272
0.99488685
1.0193556
1.0194074
0.99482025
1.0195126
0.99479891
1.0194596
1.0187395
1.0185615
1.0184593
1.0186381
1.0182883
1.0181257
1.0182282
1.0186113
1.0184989
1.0183366
0.99788045
1.0185127
1.0185495
1.0184572
0.99809369
1.0180877
1.0179496
1.0180289
0.99890866
0.99482839
0.99490014
1.0192043
1.0191511
1.0190392
0.99838218
0.99433453
0.99426106
0.99452606
0.99454125
0.99460096
1.0189712
1.0185653
1.0197678
1.0196619
1.0193738
1.0197073
1.0198706
1.0198101
1.0190174
1.0191945
1.019969
1.0199085
1.0196013
1.019552
1.0194891
1.0190994
1.0189379
1.0188095
1.0187273
1.0188472
1.0186854
1.0182655
1.0185103
1.018639
1.0187845
1.018656
1.0184115
1.0183859
1.0185317
1.0182951
1.0181825
1.0114172
1.0124158
1.017117
1.0128368
1.0089257
1.0163334
1.0216271
1.0002617
1.0307478
0.99245634
1.0306587
1.033526
1.021349
1.0271331
1.0278908
1.0354166
1.0262313
1.0242203
1.0230146
1.0239652
1.0162486
1.0200697
1.03342
1.0048521
1.0171923
1.028681
1.0231497
1.0177724
1.0175931
1.029444
1.0345743
1.0354405
1.0176477
1.0144443
1.0112045
1.0154039
1.0123498
1.0122517
1.0176405
1.0078247
1.0122475
1.0122768
1.0099891
1.0088849
1.036133
1.0344377
1.0197767
1.0217867
1.0178101
1.0172731
1.0148592
1.0264568
1.0330988
1.0246836
1.0239194
1.0360426
1.0343102
1.0329906
1.0180011
1.0178916
1.0183723
1.0181303
1.018247
1.0181179
1.0185011
1.0183705
1.0182416
1.0180209
1.0181491
1.0181272
1.0180106
1.0177554
1.0176424
1.0180363
1.0182477
1.0179963
1.0181169
1.0178724
1.0178762
1.0179931
1.0178977
1.0177665
1.0178795
1.0175252
1.0176384
1.0177555
1.0176456
1.0174152
1.0177665
1.0175285
1.0042708
1.0009866
0.9992367
1.0017609
0.99847696
1.0005593
0.99843418
0.99991483
0.99900295
0.99907171
0.99873144
0.99893356
0.99806498
1.0071308
1.00179
0.99961421
1.000187
0.99974503
1.0103756
1.0177086
1.0179276
1.0055643
1.0175991
0.99967089
1.0176705
0.99936151
0.99863521
1.0176523
1.0177825
1.0177237
1.0178249
1.004659
1.0033019
1.0013474
1.0025429
1.0011369
1.0000607
1.0006445
1.0003765
0.99925691
1.0020562
1.0087717
1.0030354
1.0176417
1.017442
1.0028116
0.99945865
0.99989987
1.0172039
1.0173821
1.0001831
1.0005945
1.0001506
0.99964233
1.0006853
0.99983305
1.0009508
1.0003392
1.0014104
1.0004958
1.0023867
1.0058353
1.0049961
1.0075385
1.0017662
1.0030997
1.0015591
1.0023227
1.0036403
1.0170441
1.0169326
1.0009811
1.0017896
1.0007649
1.0171506
1.0169847
1.0007061
1.0007057
1.0015301
1.0028596
1.0024527
1.0172045
1.0042202
1.017789
1.0067249
1.0175335
1.0175296
1.0004065
1.017462
1.0006163
1.0173322
1.0173962
1.01727
1.0172095
1.0010973
1.0170938
1.0171508
1.0012769
1.0009517
1.0012055
1.0176576
1.0176861
1.0175547
1.0038628
1.0046939
1.0026575
1.0071933
1.0019537
1.0036856
1.0014279
1.0175829
1.0175716
1.0175152
1.0173855
1.0175083
1.0174495
1.0174161
1.0173131
1.0174304
1.0171472
1.017263
1.0172042
1.0173234
1.0173195
1.0172629
1.0022728
1.0173058
1.0041414
1.0016977
1.0168819
1.0038146
1.0016327
1.0170384
1.0039204
1.0172024
1.0170971
1.0026377
1.0169857
1.0169903
1.0169346
1.0170948
1.017038
1.0170919
1.0025615
1.0235412
1.009102
1.0185582
1.0169416
1.0040139
1.0009483
1.0052969
1.010193
1.0122971
1.0008158
1.0037851
1.0017811
1.0008613
1.0100158
1.0050877
1.0121574
1.0202734
1.028832
1.0062455
1.0092391
1.0131425
1.0186804
1.0135251
1.0039452
1.0028653
1.0051294
1.0100832
1.0122327
1.0059992
1.0245731
1.0321208
1.0278474
1.0169932
1.0171565
1.0210295
1.0168419
1.0167925
1.0168936
1.0169461
1.0016985
1.0167378
1.0025833
1.0017585
1.0168329
1.016787
1.0170533
1.0169993
1.0080973
1.0065222
1.0143528
1.0172132
1.0264401
1.0237855
1.0284056
1.0067493
1.0083564
1.0180135
1.0151409
1.0028094
1.0168886
1.0168847
1.0168373
1.0169413
1.0170488
1.0169943
1.0171018
1.0171004
1.0170477
1.0065679
1.0081587
1.0200648
1.0173194
1.0147032
)
;
    }
    air_to_vegetation
    {
        type            calculated;
        value           nonuniform List<scalar> 0();
    }
    procBoundary7to6
    {
        type            processor;
        value           uniform 0;
    }
    procBoundary7to8
    {
        type            processor;
        value           uniform 0;
    }
    procBoundary7to9
    {
        type            processor;
        value           uniform 0;
    }
    procBoundary7to11
    {
        type            processor;
        value           uniform 0;
    }
}


// ************************************************************************* //
