/*--------------------------------*- C++ -*----------------------------------*\
  =========                 |
  \\      /  F ield         | OpenFOAM: The Open Source CFD Toolbox
   \\    /   O peration     | Website:  https://openfoam.org
    \\  /    A nd           | Version:  8
     \\/     M anipulation  |
\*---------------------------------------------------------------------------*/
/*   Windows 32 and 64 bit porting by blueCAPE: http://www.bluecape.com.pt   *\
|  Based on Windows porting (2.0.x v4) by Symscape: http://www.symscape.com   |
\*---------------------------------------------------------------------------*/
FoamFile
{
    version     2.0;
    format      ascii;
    class       volScalarField;
    location    "0/vegetation";
    object      viewFactorField;
}
// * * * * * * * * * * * * * * * * * * * * * * * * * * * * * * * * * * * * * //

dimensions      [0 0 0 0 0 0 0];

internalField   uniform 0;

boundaryField
{
    left
    {
        type            calculated;
        value           nonuniform List<scalar> 0();
    }
    right
    {
        type            calculated;
        value           nonuniform List<scalar> 0();
    }
    back
    {
        type            calculated;
        value           nonuniform List<scalar> 
14
(
1.0871676
1.0871676
1.063614
1.0871676
1.0871676
1.0871676
1.0871676
1.0871676
1.0871676
1.063614
1.063614
1.063614
1.063614
1.063614
)
;
    }
    front
    {
        type            calculated;
        value           nonuniform List<scalar> 0();
    }
    bottom
    {
        type            calculated;
        value           nonuniform List<scalar> 
102
(
1.0858526
1.0502732
1.027497
1.0858526
1.0130792
1.0203755
1.027497
1.0213387
1.089779
1.0044056
1.091096
1.0104524
1.0130792
1.0858526
1.0547839
1.0585576
1.0585576
0.99279557
0.99279557
1.0547839
1.1728403
1.0386937
1.0585576
1.0386937
1.0827208
1.1728403
1.1728403
1.1728403
1.0502732
1.0502732
1.0502732
1.027497
1.0386937
1.027497
1.0104524
1.0104524
1.0130792
1.0203755
1.0203755
1.0203755
1.0213387
1.0213387
1.0213387
1.089779
1.089779
1.089779
1.0044056
1.0044056
1.0044056
1.091096
1.091096
1.091096
1.0104524
1.0386937
1.0585576
1.0130792
1.0858526
1.0547839
1.0615899
1.0615899
0.99279557
0.99279557
1.0547839
1.0827208
1.0827208
1.0827208
1.1477685
1.1477685
1.0482639
1.0482639
1.0482639
1.0454375
1.0454375
1.0454375
1.0547839
1.0547839
1.0454375
1.0601434
1.0601434
1.1477685
1.0641987
1.0641987
1.0641987
1.1728403
1.091096
1.091096
1.0641987
1.1477685
1.1477685
1.0460424
1.089779
1.089779
1.0482639
1.0601434
1.0601434
1.0601434
1.0460424
1.0460424
1.0460424
1.0615899
1.0615899
1.0615899
)
;
    }
    top
    {
        type            calculated;
        value           nonuniform List<scalar> 
66
(
0.97640355
0.97640355
1.0538643
1.0658532
1.0271062
1.0074156
1.0074156
1.1186201
1.1186201
1.0538643
1.0538643
1.0271062
1.0658532
1.0658532
1.0658532
1.0538643
1.0538643
1.0538643
1.0271062
1.0074156
0.97640355
1.0074156
1.0074156
1.0074156
1.0074156
1.0074156
1.0074156
0.97640355
1.1186201
1.1186201
0.97640355
1.0074156
1.0074156
1.1186201
1.1186201
0.97640355
1.1186201
1.1186201
1.1186201
1.0271062
1.0271062
1.0271062
1.0271062
1.0271062
1.0271062
1.0538643
1.0658532
1.0658532
1.0658532
1.0658532
1.0658532
1.0658532
1.0271062
1.0271062
1.0271062
0.97640355
0.97640355
1.1186201
1.0538643
1.0271062
1.0074156
1.0074156
1.0074156
1.1186201
1.1186201
1.1186201
)
;
    }
    tower
    {
        type            calculated;
        value           nonuniform List<scalar> 
387
(
0.9751411
0.97549794
0.97637513
0.97629555
0.97566537
0.97565538
0.9758089
0.97610517
1.0005989
1.0084096
0.99865646
1.0753927
0.99470053
1.1095282
0.98061428
0.98042942
0.98260842
0.99277007
0.98067604
0.97764128
1.0140085
0.97579878
0.98019736
0.98752839
1.0114958
0.99957073
0.99126441
0.9933211
1.006464
0.98058956
0.98123392
0.97624418
0.98063866
0.9811282
0.97735654
1.0088595
1.0049825
1.0022678
1.004139
0.99734215
1.1076805
0.99332951
0.99450403
1.1083447
0.9933592
1.0017193
1.0003043
0.99504999
1.0675377
0.99918109
0.97974362
0.97923187
0.97297052
0.9725049
0.9720668
0.99999513
0.98530703
0.98743459
0.98017013
0.97971497
0.97135028
1.037902
1.0326027
1.0107466
1.0214329
1.027184
0.97281728
0.97138769
0.96973734
0.97067612
1.036463
1.021898
0.98132601
1.0138318
1.0018714
1.0030344
1.0041673
1.0051847
1.0097883
1.0051413
0.97920121
0.97438567
0.98006824
0.97529497
0.97481933
0.9747434
0.97417386
1.0283344
1.0120728
1.0251174
0.97866079
0.97163129
0.97318496
0.97964903
0.97515172
0.97385897
0.99755297
0.98130413
1.0066626
1.0257248
1.0058304
1.0131857
0.97975416
0.98082045
0.97925515
0.97937577
0.97916344
0.97672244
0.97939006
0.98008723
0.98082628
0.98044499
0.9768404
0.97961305
0.97937719
1.0072582
1.0060003
1.0027938
1.0034081
1.0007514
1.000472
1.0518714
1.0377658
1.0513836
0.97141296
0.97305119
1.0361332
1.0444382
1.0488392
1.0132006
1.0162665
1.0504228
1.0334588
1.0470311
1.0288364
1.0332915
1.0412027
0.98125519
0.99373299
0.99705649
1.0232521
1.0041236
1.0108857
0.97984491
0.98102705
0.97994026
0.97153655
0.97309673
0.97137891
0.97293722
0.97004588
0.97161666
0.97105638
0.97263722
0.97056304
0.97215762
0.96844041
0.969848
0.96864421
0.9701856
0.99531735
0.99550899
0.99459527
0.9807335
0.98093301
0.97871231
0.97509217
0.97711736
0.9983407
1.0010336
0.99889871
1.0036258
1.0027386
1.0005522
0.97993751
0.98081834
0.98105625
0.97660411
0.97761114
0.97728604
0.97852228
0.9982112
0.99933066
0.99567085
0.98043953
0.97829233
0.98077599
0.97943057
1.0026043
1.0008766
1.0023623
1.0033163
1.0040463
1.0030953
1.0077841
1.010082
1.0079763
1.0063674
1.0050678
1.0064465
0.97399394
0.97670064
0.97546728
0.97761335
0.97530369
0.97711723
1.0286906
1.0202057
1.0208838
1.0150122
1.0126899
1.0158436
1.0275467
1.0188798
1.0202185
0.97368474
0.97211192
0.97267352
0.97604863
0.97504475
0.97748685
0.97461116
0.97652682
0.98323431
0.990688
0.99087029
0.99896088
1.0029431
0.99700814
1.0230368
1.018667
1.0162471
1.0189178
1.0079576
1.0129074
0.97861194
0.97945125
0.97674167
0.97802776
0.97949385
0.97894173
0.97711775
0.97811172
0.98072069
0.98070155
0.98088218
0.98073538
0.97810172
0.97774036
0.98043836
0.97989032
0.97835297
0.9794189
0.98071094
0.98017635
0.97929639
0.97967637
0.97898707
0.97956909
0.98054822
0.98005796
0.9800652
0.98054976
1.0489459
0.99441905
0.99949207
1.1094234
0.98076903
1.0019777
1.0718232
1.0005535
0.96726
1.0174465
1.0007225
0.99845175
0.9995067
0.99446744
0.99704942
0.99427488
0.98031708
1.0051772
1.0249827
1.0035474
0.96368808
1.0369295
0.9962434
0.9930112
1.1075629
0.99369069
0.9784676
0.99766438
1.0985948
0.99298884
0.99244736
1.1091961
0.99198135
0.98491219
0.99089682
0.97144011
0.97097857
0.97053591
0.9712808
0.96981823
0.96858582
0.96964414
0.96911565
0.99278596
0.99681806
0.99539284
0.99359441
0.99063493
0.99586838
0.99809537
1.0981783
0.99696444
0.99461499
0.9749299
1.1058533
0.99129693
0.99163765
1.1087803
0.99134815
0.9916033
0.98705705
0.98932403
0.97627359
0.9956379
0.99422918
0.99469392
0.97969903
0.98060175
0.97797522
0.98540065
0.99207531
0.99089343
0.97850402
1.000278
1.0003433
0.99984179
0.99988698
0.99890074
0.99939969
0.9937892
0.99569397
0.99455397
0.97635165
0.97783502
0.97767082
0.97458059
0.97535811
0.9774543
0.977111
0.9977078
0.99476897
0.99419593
0.99366892
0.99223102
0.9927219
0.99645321
0.99509047
0.99498353
0.99321331
0.99400327
0.99275129
0.99362547
0.99216945
0.99239126
0.97895726
0.97808742
0.97903732
0.97836588
0.9914855
0.99442686
0.99330733
0.99140297
0.99540322
0.99269098
0.98085282
0.98097632
0.97718797
0.98059021
0.97909696
0.98081928
0.9793191
0.97920993
0.98073233
0.98071518
)
;
    }
    air_to_vegetation
    {
        type            calculated;
        value           nonuniform List<scalar> 0();
    }
    procBoundary7to1
    {
        type            processor;
        value           uniform 0;
    }
    procBoundary7to4
    {
        type            processor;
        value           uniform 0;
    }
    procBoundary7to5
    {
        type            processor;
        value           uniform 0;
    }
    procBoundary7to6
    {
        type            processor;
        value           uniform 0;
    }
    procBoundary7to8
    {
        type            processor;
        value           uniform 0;
    }
    procBoundary7to9
    {
        type            processor;
        value           uniform 0;
    }
    procBoundary7to15
    {
        type            processor;
        value           uniform 0;
    }
    procBoundary7to17
    {
        type            processor;
        value           uniform 0;
    }
    procBoundary7to18
    {
        type            processor;
        value           uniform 0;
    }
    procBoundary7to19
    {
        type            processor;
        value           uniform 0;
    }
}


// ************************************************************************* //
