/*--------------------------------*- C++ -*----------------------------------*\
  =========                 |
  \\      /  F ield         | OpenFOAM: The Open Source CFD Toolbox
   \\    /   O peration     | Website:  https://openfoam.org
    \\  /    A nd           | Version:  8
     \\/     M anipulation  |
\*---------------------------------------------------------------------------*/
/*   Windows 32 and 64 bit porting by blueCAPE: http://www.bluecape.com.pt   *\
|  Based on Windows porting (2.0.x v4) by Symscape: http://www.symscape.com   |
\*---------------------------------------------------------------------------*/
FoamFile
{
    version     2.0;
    format      ascii;
    class       volScalarField;
    location    "0/vegetation";
    object      qs;
}
// * * * * * * * * * * * * * * * * * * * * * * * * * * * * * * * * * * * * * //

dimensions      [1 0 -3 0 0 0 0];

internalField   uniform 0;

boundaryField
{
    left
    {
        type            solarLoadRadiationViewFactor;
        albedoMode      lookup;
        albedo          uniform 0;
        qso             uniform 0;
        value           nonuniform List<scalar> 0();
    }
    right
    {
        type            solarLoadRadiationViewFactor;
        albedoMode      lookup;
        albedo          uniform 0;
        qso             uniform 0;
        value           nonuniform List<scalar> 0();
    }
    back
    {
        type            solarLoadRadiationViewFactor;
        albedoMode      lookup;
        albedo          uniform 0;
        qso             uniform 0;
        value           nonuniform List<scalar> 0();
    }
    front
    {
        type            solarLoadRadiationViewFactor;
        albedoMode      lookup;
        albedo          uniform 0;
        qso             uniform 0;
        value           nonuniform List<scalar> 0();
    }
    bottom
    {
        type            solarLoadRadiationViewFactor;
        albedoMode      lookup;
        albedo          uniform 0.2;
        qso             uniform 0;
        value           uniform 0;
    }
    top
    {
        type            solarLoadRadiationViewFactor;
        albedoMode      lookup;
        albedo          uniform 0;
        qso             uniform 0;
        value           uniform 0;
    }
    tower
    {
        type            solarLoadRadiationViewFactor;
        albedoMode      lookup;
        albedo          uniform 0.4;
        qso             uniform 0;
        value           uniform 0;
    }
    air_to_vegetation
    {
        type            solarLoadRadiationViewFactor;
        albedoMode      lookup;
        albedo          uniform 0.15;
        qso             uniform 0;
        value           nonuniform List<scalar> 0();
    }
    procBoundary12to2
    {
        type            processor;
        value           uniform 0;
    }
    procBoundary12to7
    {
        type            processor;
        value           uniform 0;
    }
    procBoundary12to8
    {
        type            processor;
        value           uniform 0;
    }
    procBoundary12to9
    {
        type            processor;
        value           uniform 0;
    }
    procBoundary12to10
    {
        type            processor;
        value           uniform 0;
    }
    procBoundary12to13
    {
        type            processor;
        value           uniform 0;
    }
    procBoundary12to14
    {
        type            processor;
        value           uniform 0;
    }
}


// ************************************************************************* //
