/*--------------------------------*- C++ -*----------------------------------*\
  =========                 |
  \\      /  F ield         | OpenFOAM: The Open Source CFD Toolbox
   \\    /   O peration     | Website:  https://openfoam.org
    \\  /    A nd           | Version:  8
     \\/     M anipulation  |
\*---------------------------------------------------------------------------*/
/*   Windows 32 and 64 bit porting by blueCAPE: http://www.bluecape.com.pt   *\
|  Based on Windows porting (2.0.x v4) by Symscape: http://www.symscape.com   |
\*---------------------------------------------------------------------------*/
FoamFile
{
    version     2.0;
    format      ascii;
    class       volScalarField;
    location    "0/vegetation";
    object      viewFactorField;
}
// * * * * * * * * * * * * * * * * * * * * * * * * * * * * * * * * * * * * * //

dimensions      [0 0 0 0 0 0 0];

internalField   uniform 0;

boundaryField
{
    left
    {
        type            calculated;
        value           nonuniform List<scalar> 0();
    }
    right
    {
        type            calculated;
        value           nonuniform List<scalar> 0();
    }
    back
    {
        type            calculated;
        value           nonuniform List<scalar> 0();
    }
    front
    {
        type            calculated;
        value           nonuniform List<scalar> 0();
    }
    bottom
    {
        type            calculated;
        value           nonuniform List<scalar> 
56
(
1.0176836
1.0021924
1.0176836
1.0021924
0.92516032
0.92593287
0.90435226
0.92593287
0.90435226
0.98812697
0.92593287
0.92516032
1.0021924
1.0176836
0.90435226
0.92593287
0.98812697
0.90435226
1.0257678
0.99198794
0.99198794
0.89015927
0.99624464
0.99624464
0.98812697
1.0176836
1.0176836
1.0021924
1.0021924
0.98812697
0.92516032
0.92593287
0.89015927
0.99624464
0.90435226
1.0257678
0.99198794
1.0339339
1.0339339
0.92516032
1.0339339
0.99198794
0.99624464
0.99624464
1.0257678
1.0339339
0.99624464
0.99624464
1.0257678
1.0257678
0.89015927
0.92516032
0.92593287
0.89015927
0.99624464
0.90435226
)
;
    }
    top
    {
        type            calculated;
        value           nonuniform List<scalar> 
101
(
1.0303964
1.0156033
1.0165527
1.0303964
1.0156033
1.0303964
1.0156033
1.0156033
1.0165527
1.0303964
1.0165527
0.98951827
1.0165527
1.0303964
0.98951827
0.98951827
1.0303964
1.0165527
0.99037993
0.98951827
1.0156033
1.0156033
1.0165527
0.98951827
0.98951827
0.98951827
1.0165527
1.0165527
0.98951827
0.98951827
0.98951827
0.98951827
0.98951827
0.98951827
0.98951827
0.98951827
0.99037993
0.99037993
1.0303964
0.99037993
0.99037993
0.99037993
1.0156033
0.99037993
1.0303964
1.0303964
1.0303964
1.0165527
1.0165527
1.0165527
1.0303964
1.0303964
1.0165527
1.0165527
1.0303964
1.0303964
1.0303964
1.0303964
1.0303964
1.0165527
1.0165527
1.0165527
1.0165527
1.0303964
1.0303964
1.0303964
1.0165527
0.98951827
1.0156033
1.0156033
1.0156033
1.0156033
1.0156033
1.0156033
1.0156033
1.0156033
0.98951827
0.98951827
1.0156033
1.0156033
1.0156033
1.0156033
1.0156033
1.0156033
1.0156033
0.99037993
0.99037993
0.99037993
0.99037993
0.99037993
0.99037993
0.99037993
0.99037993
0.99037993
0.99037993
0.99037993
0.99037993
0.99037993
0.99037993
0.99037993
0.98951827
)
;
    }
    tower
    {
        type            calculated;
        value           nonuniform List<scalar> 
1054
(
0.99950338
0.99761096
0.99944689
0.99932643
0.99937443
0.99945629
0.9992136
0.9993036
0.99928697
0.99890748
0.9968949
0.99965702
0.99245966
0.99634813
0.99675963
0.99941693
0.99632572
0.99932545
0.99624154
0.99947208
0.99682879
0.99971668
0.99755545
0.99751856
0.99745401
0.99879576
0.99787519
0.99786513
0.99668869
0.99937814
0.99650973
0.99642985
0.99621383
0.99931672
0.99645812
0.996374
0.99611022
0.99936845
0.99512057
0.99481614
0.99708877
0.99794248
0.99667243
0.9963926
0.99609035
0.99702409
0.99730878
0.99725151
0.99812674
0.9978509
0.99781907
0.99659618
0.99659177
0.99651265
0.99629182
0.9964327
0.99634025
0.99592791
0.99575215
0.99554517
1.0106131
1.009524
1.0002414
0.99693694
0.98471825
0.99797366
0.94467685
0.99046613
0.96493096
0.99166615
0.97907511
0.9882027
0.97931833
0.9960204
0.99563989
0.99612197
0.99671445
0.99599972
0.9825933
0.98010062
0.9830201
0.98364157
0.99531036
0.97851883
0.99316011
0.97908873
0.99540529
0.97896579
0.98097111
0.98092242
0.98354861
0.98438134
0.98390884
0.98406366
0.98337685
0.98182765
0.98135253
0.98355757
0.99936268
0.99360035
0.98891736
0.99607686
0.98322868
0.98435565
0.9840436
0.98373023
0.98300439
0.98079191
0.98006182
0.98331227
0.98824096
0.96782286
0.95031132
1.06748
1.0376713
0.99806641
1.0538015
1.0557305
1.002266
0.97731552
1.0125188
0.98457291
0.99679206
0.99753252
0.99931862
0.99791434
0.99892146
1.0290836
0.96107086
1.0361354
0.99625326
0.99531163
0.97109857
0.97734601
0.96132391
1.0108508
0.96979509
0.98196275
0.97002243
0.97648569
0.97545363
0.98140783
0.97506507
0.98835499
0.97509505
0.98307347
0.97502663
0.99664768
0.9963684
0.99606975
0.99630232
0.995919
0.9945294
0.98176418
0.98166021
0.99585984
0.97493435
0.99478548
0.97431423
0.99571254
0.97508971
0.99406998
0.9752758
0.9897538
0.97514505
0.99319371
0.97526737
0.98104487
0.98382961
0.98447862
0.98399655
0.9843387
0.9819041
0.98364219
1.0126448
1.0177635
1.0004274
0.99621611
0.99455661
0.99604601
0.99585946
0.98370741
0.98445622
0.98432168
0.9838422
0.98328682
0.9809409
0.98342854
0.98079098
0.96133737
0.97678409
0.93510198
0.98828456
0.99351979
1.02116
1.0237953
1.060551
1.0228043
1.0473523
0.99039784
0.99762472
1.0003757
0.99812982
0.99741123
0.9968823
0.99766468
0.99351896
0.9386868
0.94846609
0.94435585
0.94291263
0.98848493
0.99070459
0.9893139
0.9852239
0.97939036
0.97621265
0.97618073
0.97908082
0.98981869
0.98347458
0.97650294
0.9793578
0.9762017
0.99539322
0.99575297
0.99583357
0.99616003
0.99491246
0.99564155
0.99637071
0.99605631
0.99636917
0.99655003
0.99673808
0.99644941
0.99517506
0.99586103
0.99449184
0.9820115
0.9812061
0.98332778
0.98209822
0.98353264
0.98220186
0.99546608
0.9945561
0.99443236
0.97597259
0.97522299
0.99041385
0.99409072
0.99334943
0.97625258
0.97917406
0.97637203
0.99534636
0.99478294
0.99404186
0.97615171
0.97916797
0.97637748
0.98107491
0.98391236
0.98369809
0.98406862
0.98398519
0.98423176
0.98414408
0.98269725
0.98352458
0.98284249
0.98241174
0.98150305
0.98255736
0.9954412
0.99707399
0.99452911
0.99452535
0.9914691
0.9942736
0.98372858
0.98344541
0.98392138
0.9838433
0.98421542
0.98402973
0.98210704
0.9832299
0.98234777
0.98170958
0.98018421
0.98194391
0.97532366
0.94298964
0.9871569
0.98111293
0.98431692
0.98427539
0.98418501
0.9837362
0.98416046
0.98410877
0.98154059
0.98252866
0.98259403
0.98356218
0.9831005
0.98287913
0.99164558
0.99412018
0.99412728
0.99666313
0.99555362
0.99490373
0.98426012
0.98424041
0.98407845
0.98350215
0.984034
0.98397182
0.98023056
0.98193221
0.98200774
0.98328902
0.98273985
0.98241199
0.99129471
1.0028947
1.0135247
1.0022812
0.93611924
0.98189707
0.98141115
0.981843
0.98148129
0.98130713
0.98153023
0.98137718
0.98137287
0.99690515
0.97276025
0.97451665
0.97348949
0.99779351
0.97312342
0.97396474
0.97473641
0.99728521
0.97322422
0.97409029
0.97519578
0.99428689
0.97334131
0.97423818
0.97525513
0.99290978
0.97332817
0.97422706
0.97523827
0.98769791
0.97320178
0.97410275
0.97519529
0.98557978
0.97314816
0.97405085
0.97505307
0.977693
0.97306258
0.97397719
0.97502694
0.97450225
0.97309849
0.97515324
0.97402034
0.96591036
0.97347824
0.9744416
0.97528791
1.0321836
1.001108
0.99912182
0.98562442
0.98903861
0.97846808
0.97932573
0.98044696
0.98097948
0.98369481
0.98360428
0.98406083
0.98412572
0.98317863
0.98343192
0.98174204
0.98140883
0.99732391
0.998156
0.99235881
0.99064638
0.98342286
0.98330795
0.98400054
0.98410694
0.98274651
0.9830868
0.98070088
0.98010206
0.99699177
0.99723456
0.99855444
0.99792642
0.97154967
0.97772662
0.97923142
0.97769205
0.98693652
0.98687391
0.98053647
0.98513234
0.99654531
0.99645326
0.99617597
0.99624695
0.99567395
0.99524317
0.99662047
0.99581516
0.99549747
0.99551855
0.99632857
0.99534815
0.99408558
0.99479347
0.98867461
0.99102672
0.99297363
0.99217626
0.981091
0.98104953
0.98409509
0.98405198
0.98441099
0.98455385
0.98425135
0.98406335
0.98426376
0.98455157
0.98369004
0.98260765
0.98195539
0.98318218
0.98370563
0.98192207
1.0305471
0.99781853
0.99191437
0.95826798
0.96552848
0.98102016
0.99636898
0.99606314
0.99514451
0.99490632
0.99651689
0.99558934
0.99634129
0.99566394
0.98401043
0.98392316
0.98434446
0.98453369
0.98421295
0.98453318
0.98414184
0.98392415
0.98270927
0.98350724
0.98101604
0.98205629
0.98285988
0.98351091
0.98189991
0.98100476
0.99831988
0.99810667
1.0005076
0.99908077
0.99880641
0.99829122
0.97619456
0.97725267
0.97618617
0.97733497
0.98282375
0.9799274
0.9896403
0.98845428
0.98163335
0.98609416
0.97752122
0.97637273
0.97933713
0.97840167
0.97626791
0.97733557
0.98181247
0.98196889
0.98256314
0.98233499
0.98228068
0.98266288
0.9757504
0.97695271
0.97549029
0.97614009
0.97630149
0.97727448
0.97634408
0.97738981
0.9762782
0.97713306
0.97635025
0.97739254
0.97991942
0.98103037
0.98060037
0.98007119
0.98381585
0.98397036
0.98365412
0.98384633
0.98402246
0.98396965
0.98403472
0.9840441
0.98418176
0.98422559
0.98409707
0.98419643
0.98295251
0.98275149
0.98348118
0.98332501
0.98279994
0.98309803
0.98209419
0.98246615
0.98145908
0.98189047
0.98251474
0.9822409
0.99636744
0.99466622
0.99745077
0.99631107
0.99416332
0.99525519
0.99413696
0.99371889
0.99145651
0.99174623
0.99385927
0.99289188
0.98358894
0.98379929
0.98338024
0.98363093
0.9838636
0.98378897
0.9839339
0.98391175
0.98416423
0.98417658
0.98397393
0.98411477
0.98244971
0.98219453
0.98316201
0.98298006
0.98227469
0.98268909
0.98124554
0.98179432
0.98014164
0.98088105
0.98187222
0.98146138
0.99707505
0.99773953
0.99708854
0.99697336
0.99734728
0.99783402
0.99115921
0.98911811
0.98816014
0.99050362
0.98646539
0.98743277
0.97947822
0.97841689
0.99536739
0.99565333
0.99530071
0.99603486
0.99520394
0.99512073
0.99544194
0.99588675
0.99619267
0.99608178
0.99629146
0.99644517
0.99662317
0.99683522
0.99653976
0.99653022
0.99506808
0.9954782
0.99556635
0.99588541
0.99491624
0.99512455
0.99538952
0.99540187
0.99442323
0.99493068
0.99500836
0.99432331
0.99144086
0.9913154
0.99253601
0.99356052
0.99501293
0.99516304
0.99460129
0.99424407
0.98063859
0.98115251
0.98010921
0.98426825
0.984313
0.9842382
0.98421925
0.98388508
0.98376633
0.98400906
0.98414492
0.98192762
0.98156548
0.9822777
0.98263041
0.98336214
0.9835977
0.98313487
0.98290598
0.99255101
0.99228685
0.99352482
0.99437573
0.99653073
0.99597021
0.99526816
0.99502327
0.98422247
0.98429911
0.98416199
0.98411874
0.98368541
0.98354714
0.98384131
0.98401703
0.98027649
0.9809365
0.98152243
0.9820701
0.9830414
0.98334304
0.98275232
0.98246051
0.94532791
1.03126
0.96907187
0.97654517
0.96918662
1.0288019
1.0163504
1.0696998
0.97536817
0.96998628
0.9751129
0.95486504
0.98122218
0.9328681
1.0090946
0.98895047
0.99081267
0.97124101
0.97131828
0.97622693
0.99635248
0.9857713
0.99245718
0.97981435
0.96765144
0.97848996
0.95527705
0.96019919
0.93105697
0.99097568
0.95540574
0.98591326
1.0184941
0.95209891
1.0160906
1.0411949
1.0364367
1.0456634
1.0285993
1.0136237
1.0436556
0.99619733
0.97829087
1.0019316
1.0130103
0.98751145
1.0100911
1.0622344
1.0566576
1.0532116
1.0342901
1.057817
1.0624793
1.0272378
1.0465255
1.0168877
1.0433278
1.0459134
1.020315
1.0145704
1.0060666
0.99737313
0.99763747
0.99042975
0.9692967
1.0116821
1.019021
1.0169966
0.99441111
1.0147399
0.98682622
0.95638178
0.97392808
1.016583
0.98273857
1.0279476
0.97349033
1.001302
0.97740121
1.0095906
1.0039399
0.9792519
0.98047423
0.98354625
0.96605888
1.0059985
0.98555228
0.99721424
0.98154234
0.98161355
0.98148939
0.98155993
0.98117645
0.98124672
0.98101779
0.98108859
0.99766969
0.97286829
0.97363702
0.99795131
0.97299893
0.973807
0.99649915
0.97329382
0.97417627
0.99548861
0.97333165
0.97422367
0.99135954
0.97329739
0.97419699
0.98961887
0.97325358
0.97415365
0.98315811
0.97310025
0.9740057
0.98038867
0.97306763
0.97397698
0.97141382
0.97318525
0.97411747
0.96871176
0.97331991
0.97935996
0.97426481
0.96034782
0.9861731
0.99966394
1.0067358
0.98512811
0.98558175
0.9948492
0.98906354
0.97843324
1.0411415
1.0294152
0.98050436
1.0875112
1.0958362
0.98375119
1.0309423
1.0491987
0.98412174
1.0979621
1.0807396
0.98323323
1.0742249
1.0695503
0.98179755
0.99708212
1.0088244
1.0143794
0.99224565
1.0415361
1.0461172
0.98349903
1.026331
1.0214121
0.98406535
1.0345614
1.0232294
0.98283176
0.99691242
1.019766
0.98076399
0.97339816
0.94843615
0.96794836
0.97546216
0.98505804
0.98271719
0.99661228
0.996302
0.99578513
0.99502839
0.99027174
0.99170121
0.98431348
0.98448369
0.98432123
0.98447897
0.98322144
0.98266343
0.98324197
0.98263706
1.0059363
1.0285527
0.98567528
0.99614333
0.99516614
0.99609304
0.99553101
0.98422309
0.98442384
0.98442428
0.98422274
0.98293462
0.98213706
0.98294195
0.98212641
0.99885218
1.0000092
0.99903565
0.9773441
0.97742745
0.96679083
0.9667273
0.9831898
0.98690954
0.98464931
0.9730883
0.9681318
0.97743819
0.97840862
0.97737283
0.98227993
0.98243015
0.98279683
0.98274425
0.97678639
0.97656069
0.97732199
0.977362
0.97727884
0.97735828
0.97768445
0.93774442
1.0257691
1.0256159
0.97997619
0.98055555
0.98002679
1.0662904
1.0898827
0.98387301
0.9838017
0.98392428
1.0659941
1.0576366
0.98409459
0.98417667
0.9841485
1.0894271
1.0688389
0.98300682
0.98328204
0.98305536
1.0857456
1.0821697
0.98214904
0.98184709
0.982198
0.9955434
0.99668739
0.99566311
1.0140133
0.99327096
0.99186039
0.99308875
1.0380944
1.03508
0.98366223
0.98356843
0.98372895
1.02623
1.0358548
0.98400039
0.98412404
0.98406071
1.0146348
0.99935796
0.98253694
0.98290964
0.98261672
1.0128518
1.0067356
0.98132283
0.98082329
0.98139435
1.0015428
0.99469615
0.96949143
1.002038
0.93563156
0.9648235
0.96895387
0.99185046
0.98102368
0.96537425
0.95548717
0.96938678
0.88229782
0.9478939
0.91696874
1.0213808
1.0515224
1.0239408
1.028821
1.0149505
1.0291421
0.97932758
1.0056098
1.0501087
0.98144071
0.9851798
0.94669519
0.95884742
0.9972873
0.96567969
0.94333575
0.94400396
0.9763156
0.95318569
0.96079134
0.91649415
0.94605393
0.94469702
0.98284972
0.96022965
0.96552264
0.97503794
1.0150679
0.97297022
0.99738944
0.99719047
0.99745069
0.98982766
0.98943406
0.98850968
0.97848486
0.99560196
0.99551077
0.99549461
0.99569823
0.99624396
0.99635806
0.99671646
0.99662608
0.99548898
0.99557879
0.99519438
0.99522376
0.99488744
0.99488789
0.99215505
0.99287858
0.99499076
0.99469345
0.9806623
0.98015063
0.98430476
0.98427498
0.9839208
0.98404118
0.98196531
0.98230344
0.98339048
0.98317056
0.99263592
0.99353767
0.99597167
0.99525057
0.9842612
0.98420383
0.98373469
0.9838837
0.98100046
0.98156782
0.98308897
0.98281123
)
;
    }
    air_to_vegetation
    {
        type            calculated;
        value           nonuniform List<scalar> 0();
    }
    procBoundary12to2
    {
        type            processor;
        value           uniform 0;
    }
    procBoundary12to7
    {
        type            processor;
        value           uniform 0;
    }
    procBoundary12to8
    {
        type            processor;
        value           uniform 0;
    }
    procBoundary12to9
    {
        type            processor;
        value           uniform 0;
    }
    procBoundary12to10
    {
        type            processor;
        value           uniform 0;
    }
    procBoundary12to13
    {
        type            processor;
        value           uniform 0;
    }
    procBoundary12to14
    {
        type            processor;
        value           uniform 0;
    }
}


// ************************************************************************* //
