/*--------------------------------*- C++ -*----------------------------------*\
  =========                 |
  \\      /  F ield         | OpenFOAM: The Open Source CFD Toolbox
   \\    /   O peration     | Website:  https://openfoam.org
    \\  /    A nd           | Version:  8
     \\/     M anipulation  |
\*---------------------------------------------------------------------------*/
/*   Windows 32 and 64 bit porting by blueCAPE: http://www.bluecape.com.pt   *\
|  Based on Windows porting (2.0.x v4) by Symscape: http://www.symscape.com   |
\*---------------------------------------------------------------------------*/
FoamFile
{
    version     2.0;
    format      ascii;
    class       volScalarField;
    location    "0/vegetation";
    object      viewFactorField;
}
// * * * * * * * * * * * * * * * * * * * * * * * * * * * * * * * * * * * * * //

dimensions      [0 0 0 0 0 0 0];

internalField   uniform 0;

boundaryField
{
    left
    {
        type            calculated;
        value           nonuniform List<scalar> 0();
    }
    right
    {
        type            calculated;
        value           nonuniform List<scalar> 0();
    }
    back
    {
        type            calculated;
        value           nonuniform List<scalar> 0();
    }
    front
    {
        type            calculated;
        value           nonuniform List<scalar> 0();
    }
    bottom
    {
        type            calculated;
        value           nonuniform List<scalar> 
353
(
1.4783797
1.2365361
1.4011399
1.4783797
1.2252267
1.4783797
1.4783797
1.2252267
1.4011399
1.2365361
1.1627023
1.2252267
1.2728178
1.2252267
1.1627023
1.4258769
1.4312055
1.4083457
1.2820885
1.4906382
1.4906382
1.5410275
1.5410275
1.4438381
1.4438381
1.2501747
1.3581177
1.3603283
1.2194846
1.2194846
1.2194846
1.2194846
1.2728178
1.2501747
1.4312055
1.4312055
1.4312055
1.3603283
1.3603283
1.3603283
1.2820293
1.2820293
1.2820293
1.2856753
1.2856753
1.3603283
1.4011399
1.3581177
1.2501747
1.256407
1.1764287
1.1764287
1.2820885
1.4258769
1.4997001
1.2728178
1.4438381
1.4438381
1.4011399
1.5359185
1.4906382
1.4750878
1.4750878
1.4750878
1.4750878
1.1704711
1.1704711
1.1704711
1.4083457
1.4083457
1.4083457
1.2820293
1.4083457
1.2820885
1.5410275
1.4906382
1.4312055
1.4438381
1.4438381
1.5410275
1.3581177
1.2856753
1.2856753
1.3603283
1.3603283
1.3581177
1.256407
1.2194846
1.2820885
1.1158685
1.1627023
1.1627023
1.1158685
1.1704711
1.5359185
1.581352
1.2365361
1.2365361
1.1627023
1.2501747
1.2728178
1.2728178
1.2365361
1.2365361
1.2365361
1.4997001
1.4945164
1.1764287
1.4947802
1.455911
1.3000922
1.3564155
1.4947802
1.256407
1.1764287
1.4947802
1.5010236
1.3564155
1.256407
1.2109967
1.2109967
1.3564155
1.3266233
1.2300884
1.455911
1.5010236
1.4947802
1.2300884
1.3266233
1.3000922
1.4258769
1.2300884
1.2162181
1.256407
1.3266233
1.3062813
1.4423056
1.2109967
1.2162181
1.2300884
1.4258769
1.3564155
1.3062813
1.2300884
1.1298368
1.1298368
1.1158685
1.4986847
1.4986847
1.4986847
1.4423056
1.4423056
1.5010236
1.4258769
1.4423056
1.4423056
1.4423056
1.3062813
1.3564155
1.2300884
1.3062813
1.3266233
1.5010236
1.4766685
1.4766685
1.5391587
1.4766685
1.4766685
1.3266233
1.3000922
1.3000922
1.3000922
1.3000922
1.3266233
1.1158685
1.2734991
1.455911
1.3808457
1.455911
1.1764287
1.2162181
1.1764287
1.4986847
1.5391587
1.1764287
1.2162181
1.2109967
1.4794645
1.4794645
1.4794645
1.4794645
1.4794645
1.4794645
1.581352
1.581352
1.581352
1.3741693
1.3741693
1.3741693
1.4997001
1.4524252
1.4524252
1.5389872
1.5389872
1.5389872
1.5359185
1.5359185
1.5389872
1.4668239
1.4668239
1.3741693
1.4668239
1.4668239
1.4668239
1.5742684
1.5742684
1.6175592
1.5391587
1.5391587
1.6175592
1.5391587
1.5391587
1.6175592
1.4997001
1.4524252
1.4524252
1.4412426
1.4412426
1.4412426
1.522342
1.522342
1.4412426
1.4945164
1.4945164
1.4945164
1.5742684
1.5742684
1.6175592
1.0707459
1.1765397
1.2734991
1.0707459
1.1298368
1.1298368
1.2734991
1.1765397
1.1765397
1.3994375
1.4552307
1.4552307
1.115785
1.3994375
1.3476546
1.1795505
1.1795505
1.0707459
1.1086223
1.4337261
1.4467585
1.4467585
1.1795505
1.1086223
1.2926338
1.1865714
1.4337261
1.3476546
1.2547449
1.3808457
1.3881306
1.1420297
1.1086223
1.1795505
1.3881306
1.1865714
1.1865714
1.3881306
1.3483453
1.4754899
1.3808457
1.2734991
1.1420297
1.1765397
1.2547449
1.1865714
1.1086223
1.1420297
1.3994375
1.4525865
1.4525865
1.4552307
1.3994375
1.3486411
1.3994375
1.3483453
1.3483453
1.2742754
1.2742754
1.2742754
1.1795505
1.1086223
1.0707459
1.0707459
1.4754899
1.4525865
1.4337261
1.4467585
1.4525865
1.4754899
1.1086223
1.1086223
1.1865714
1.2926338
1.2926338
1.2926338
1.4337261
1.3486411
1.3486411
1.2547449
1.3483453
1.2547449
1.4754899
1.3483453
1.3808457
1.4467585
1.4467585
1.3486411
1.2742754
1.3881306
1.4552307
1.115785
1.115785
1.115785
1.1765397
1.1765397
1.1420297
1.4698414
1.4698414
1.4698414
1.5608317
1.5608317
1.4698414
1.3476546
1.3476546
1.3476546
1.5608317
1.5608317
1.5389117
1.522342
1.522342
1.522342
1.5389117
1.5389117
1.5389117
)
;
    }
    top
    {
        type            calculated;
        value           nonuniform List<scalar> 0();
    }
    Building
    {
        type            calculated;
        value           nonuniform List<scalar> 
538
(
1.1419614
1.1198832
1.1742036
1.1441741
1.170088
1.1547749
1.1611181
1.1129212
1.1317828
1.1022437
1.0887513
1.0931621
1.1616975
1.0672535
1.049924
1.1259401
1.0951506
1.1058923
1.0956702
1.0840629
1.0921021
1.098611
1.0950733
1.099508
1.0880322
1.0869314
1.0972127
1.0969664
1.1657642
1.1559132
1.1491462
1.1222156
1.1314989
1.1590709
1.1740288
1.1539613
1.1306927
1.1371109
1.0962884
1.063662
1.092887
1.0861412
1.1263522
1.0986874
1.087038
1.0841044
1.0836283
1.0868922
1.082292
1.1536936
1.1408808
1.1212008
1.1507124
1.1441678
1.3570192
1.1362346
1.0880861
1.1012162
1.086828
1.059059
1.0960834
1.0792216
1.1019101
1.0888282
1.1016478
1.1133572
1.1100732
1.1419433
1.1556771
1.1458058
1.1444686
1.1505037
1.3596613
1.1265217
1.075469
1.1095641
1.0977084
1.1201287
1.127712
1.1437847
1.0922426
1.1023675
1.09991
1.1097573
1.1077603
1.0523736
1.1568989
1.0619115
1.1132677
1.0575969
1.0813888
1.1587105
1.0876227
1.0821344
1.0931071
1.0980726
1.0935182
1.0928374
1.0985382
1.1070653
1.0887639
1.1041137
1.1201561
1.1045046
1.0869477
1.0932236
1.0916108
1.0989949
1.0966466
1.0883019
1.0798603
1.0813379
1.0907882
1.0878562
1.0896481
1.0836686
1.0922328
1.0865411
1.0868067
1.0847574
1.083129
1.0795628
1.0829333
1.080669
1.0831422
1.0854837
1.0838321
1.0864309
1.0853774
1.148445
1.1354704
1.0725394
1.0700036
1.1613134
1.1605161
1.1598793
1.157584
1.0989769
1.0862428
1.1286027
1.0738036
1.1469692
1.1180928
1.0892031
1.1649148
1.0945619
1.0996455
1.083815
1.1218948
1.1594918
1.1625135
1.1568986
1.1635261
1.1246501
1.0914608
1.1123205
1.1130763
1.1467542
1.1300622
1.1412351
1.0646824
1.105734
1.0897176
1.1453268
1.1349829
1.1212199
1.0810131
1.0840686
1.083961
1.0821961
1.0771148
1.084407
1.0861174
1.0875692
1.0884192
1.0805652
1.0802537
1.1659828
1.0676149
1.0912692
1.0473177
1.0918702
1.1439246
1.3578317
1.1408583
1.1585076
1.1479057
1.1495678
1.1240165
1.1085845
1.1384734
1.1097557
1.1127169
1.0889566
1.1072299
1.0916855
1.1558221
1.1381655
1.1526591
1.1604889
1.1393896
1.1386946
1.1502672
1.1449652
1.145094
1.1547358
1.1637538
1.3638198
1.1304789
1.1351848
1.0886094
1.0975185
1.1072472
1.0961462
1.1021924
1.1068303
1.1061316
1.0779563
1.0810311
1.0974099
1.1070918
1.110986
1.1611157
1.1601434
1.0904825
1.0854462
1.0917529
1.0957822
1.1008838
1.0855312
1.1255976
1.0912823
1.1181899
1.0926197
1.1531342
1.0613577
1.0709868
1.0633667
1.0616991
1.0654054
1.0607877
1.0705829
1.0644306
1.0729032
1.0641039
1.0694129
1.0178788
1.0627257
1.0607077
1.0611781
1.0663626
1.063402
1.0660328
1.0647368
1.0702159
1.0686876
1.0682525
1.0671408
1.0768183
1.0637092
1.0709413
1.0738961
1.0657098
1.0773495
1.0176821
1.0176218
1.0628148
1.0177758
1.0177099
1.0630332
1.0175813
1.017645
1.0646701
1.0175187
1.017457
1.0751734
1.0724484
1.0757853
1.0179203
1.0177909
1.0719391
1.0684419
1.0176657
1.0647156
1.0178241
1.0178105
1.0177582
1.0177481
1.0176297
1.0176934
1.0650328
1.0175671
1.017558
1.0175055
1.0663673
1.0175447
1.0174276
1.0173143
1.0802123
1.0830295
1.0628078
1.0628753
1.075233
1.0688331
1.0729304
1.0637994
1.0669333
1.0696628
1.0633128
1.0645045
1.0649891
1.0628057
1.0644436
1.0655922
1.0802196
1.0851366
1.0789746
1.0769206
1.0663791
1.068102
1.0646049
1.0702788
1.0174379
1.0173815
1.0172094
1.0641507
1.0173368
1.0173964
1.066747
1.0172782
1.0172206
1.0662476
1.0171081
1.0171639
1.1125623
1.0764626
1.0771341
1.0805646
1.0741438
1.0708268
1.074241
1.0729853
1.0696658
1.069393
1.0657228
1.0173853
1.0174996
1.0174449
1.0685095
1.0173268
1.0173218
1.0172691
1.0673505
1.0680198
1.0171567
1.0172672
1.0172125
1.1531511
1.1381331
1.1336225
1.111007
1.1845563
1.1217185
1.1880596
1.0918882
1.1071817
1.1569132
1.1577665
1.1459657
1.1482515
1.1210181
1.1093116
1.0803474
1.1143336
1.0924278
1.1068786
1.0678572
1.0907059
1.0897627
1.0913624
1.0842767
1.0926365
1.1002919
1.0880748
1.0807959
1.0854445
1.0608822
1.0610644
1.0739785
1.0759629
1.0660477
1.0628702
1.0666065
1.0686142
1.0680011
1.0819085
1.0599544
1.0624532
1.0617755
1.0630559
1.0785476
1.0600351
1.0642832
1.0626055
1.0646273
1.071065
1.0659932
1.0724458
1.0786315
1.1355353
1.1101022
1.1246361
1.1431269
1.1112481
1.1248321
1.1181923
1.1785429
1.1276005
1.1342144
1.0968269
1.1715575
1.1596247
1.1376428
1.1109203
1.1264585
1.1707684
1.1073445
1.1419832
1.0891933
1.0907413
1.0865558
1.0869611
1.0944869
1.0717915
1.0729593
1.0780454
1.0748821
1.0642468
1.064955
1.0643881
1.0682459
1.0700136
1.0668361
1.3492799
1.1174372
1.1270481
1.1040654
1.1466669
1.1028133
1.1214332
1.0775693
1.069185
1.1048724
1.1000063
1.1460668
1.123957
1.1235112
1.1560607
1.1191934
1.1312536
1.1397942
1.1328656
1.1089897
1.1014095
1.1620958
1.1681788
1.1155669
1.1039216
1.1179146
1.1317789
1.0974286
1.1029957
1.0848091
1.0804826
1.0615745
1.063525
1.0608034
1.0625606
1.0643464
1.0702061
1.068366
1.0745553
1.0765595
1.1125682
1.14024
1.1120753
1.116255
1.1371476
1.0817382
1.1070285
1.123152
1.0776401
1.0974327
1.0913305
1.1025047
1.0784488
1.0848135
1.0835438
1.0865089
1.0868061
1.143852
1.1008059
1.1112224
1.0952981
1.100109
1.1007723
1.0919426
1.0935885
1.0843624
1.0880535
1.0849242
1.0867424
1.09093
1.1001351
1.1005977
1.0819848
1.0831558
1.0706782
1.0755927
1.074302
1.0714987
1.073564
1.0677543
1.0703271
1.0631457
1.0651822
1.0663439
1.0660551
1.0834377
1.079303
1.0819725
1.0777393
1.0686804
1.0799914
1.0779816
1.1377996
1.1529426
1.099053
)
;
    }
    air_to_vegetation
    {
        type            calculated;
        value           nonuniform List<scalar> 
208
(
1.5370748
1.128456
1.4056891
1.0923655
1.2353208
1.2353208
1.128456
1.0714439
1.2353208
1.3322849
1.0714439
1.5370748
1.3917564
1.5919943
1.5919943
1.5919943
1.3917564
1.5919943
1.2178247
1.2353208
1.5370748
1.128456
1.128456
1.128456
1.2964006
1.4056891
1.2156396
1.2156396
1.2156396
1.2156396
1.3322849
1.0923655
1.0923655
1.2964006
1.2964006
1.3917564
1.1159296
1.1159296
1.2178247
1.1386397
1.0714439
1.1159296
1.1997591
1.0923655
1.0923655
1.0714439
1.1997591
1.2964006
1.3322849
1.5370748
1.2964006
1.2964006
1.2964006
1.4056891
1.2353208
1.3322849
1.3322849
1.3322849
1.4056891
1.4056891
1.0923655
1.1386397
1.1386397
1.3917564
1.2178247
1.2178247
1.1159296
1.1386397
1.1997591
1.1997591
1.1997591
1.1997591
1.0982291
1.1855834
1.3776598
1.7764778
1.3049474
1.1855834
1.403452
1.403452
1.1916554
1.1916554
1.0982291
1.1916554
1.0982291
1.0982291
1.1303114
1.1855834
1.5470131
1.5470131
1.2961043
1.7764778
1.5470131
1.2961043
1.3776598
1.7764778
1.7764778
1.403452
1.4055546
1.3776598
1.4055546
1.4055546
1.1242215
1.3049474
1.3776598
1.3156934
1.3156934
1.4055546
1.3156934
1.4055546
1.1916554
1.7764778
1.403452
1.1303114
1.1303114
1.3153913
1.3153913
1.3156934
1.1242215
1.3153913
1.3156934
1.1242215
1.1242215
1.3153913
1.1303114
1.1855834
1.3153913
1.4055546
1.4055546
1.7764778
1.5470131
1.3049474
1.2961043
1.7764778
1.2961043
1.3049474
1.1855834
1.1855834
1.3153913
1.1855834
1.0208545
1.0208545
1.3665917
1.0148336
1.4166903
1.0148336
1.1256086
1.1256086
1.4902535
1.3748229
1.1382625
1.1382625
1.3768939
1.3768939
1.3665917
1.1129609
1.1129609
1.3768939
1.4166903
1.4166903
1.4166903
1.2342271
1.3748229
1.0547203
1.2342271
1.0547203
1.1382625
1.0547203
1.0547203
1.1027973
1.1027973
1.0148336
1.2342271
1.2975916
1.3748229
1.2975916
1.2975916
1.1256086
1.0148336
1.1256086
1.1027973
1.0208545
1.0208545
1.0208545
1.3748229
1.4902535
1.4902535
1.0208545
1.3665917
1.3665917
1.3665917
1.1129609
1.3768939
1.1129609
1.4166903
1.1027973
1.0547203
1.2342271
1.1382625
1.4902535
1.2975916
1.4902535
1.2975916
1.2975916
1.1415917
1.1415917
1.1415917
1.1415917
)
;
    }
    procBoundary6to0
    {
        type            processor;
        value           uniform 0;
    }
    procBoundary6to1
    {
        type            processor;
        value           uniform 0;
    }
    procBoundary6to7
    {
        type            processor;
        value           uniform 0;
    }
    procBoundary6to8
    {
        type            processor;
        value           uniform 0;
    }
    procBoundary6to9
    {
        type            processor;
        value           uniform 0;
    }
    procBoundary6to10
    {
        type            processor;
        value           uniform 0;
    }
    procBoundary6to11
    {
        type            processor;
        value           uniform 0;
    }
}


// ************************************************************************* //
