/*--------------------------------*- C++ -*----------------------------------*\
  =========                 |
  \\      /  F ield         | OpenFOAM: The Open Source CFD Toolbox
   \\    /   O peration     | Website:  https://openfoam.org
    \\  /    A nd           | Version:  8
     \\/     M anipulation  |
\*---------------------------------------------------------------------------*/
/*   Windows 32 and 64 bit porting by blueCAPE: http://www.bluecape.com.pt   *\
|  Based on Windows porting (2.0.x v4) by Symscape: http://www.symscape.com   |
\*---------------------------------------------------------------------------*/
FoamFile
{
    version     2.0;
    format      ascii;
    class       volScalarField;
    location    "0/vegetation";
    object      viewFactorField;
}
// * * * * * * * * * * * * * * * * * * * * * * * * * * * * * * * * * * * * * //

dimensions      [0 0 0 0 0 0 0];

internalField   uniform 0;

boundaryField
{
    left
    {
        type            calculated;
        value           nonuniform List<scalar> 0();
    }
    right
    {
        type            calculated;
        value           nonuniform List<scalar> 0();
    }
    back
    {
        type            calculated;
        value           nonuniform List<scalar> 0();
    }
    front
    {
        type            calculated;
        value           nonuniform List<scalar> 0();
    }
    bottom
    {
        type            calculated;
        value           nonuniform List<scalar> 
197
(
0.91627767
0.91627767
0.91627767
0.91627767
0.88327881
1.0261518
1.0261518
0.88327881
0.85980263
0.88327881
1.0261518
0.88327881
1.0261518
0.97057909
0.97057909
0.89998274
0.9790858
1.0250585
0.99176597
0.93932683
0.97057909
0.75161522
0.94539852
0.93131027
0.68907538
0.97057909
0.94539852
0.93131027
1.0250585
0.99176597
0.93932683
0.80564368
0.7486832
0.96494243
0.96494243
0.92330532
0.94539852
0.7486832
0.80564368
0.77741137
0.94826383
0.94826383
0.8810494
0.89371793
0.77741137
0.91796292
0.9716415
0.98042208
0.89998274
0.75161522
0.98230878
0.8810494
0.90551484
0.91104526
0.91796292
0.89881117
0.89014209
0.90551484
0.93890465
0.93890465
0.89881117
0.98042208
0.98042208
0.86255486
1.0279519
1.0279519
0.93131027
0.81007373
0.81007373
0.7486832
0.95781
0.95781
0.96494243
0.92330532
0.88306955
0.88306955
0.88606331
0.88606331
0.75161522
0.85980263
0.85980263
0.80564368
0.91104526
0.91104526
0.91104526
0.89881117
0.81007373
0.81007373
0.89014209
0.89014209
0.89014209
0.77787485
0.89014209
0.90551484
0.92326757
0.92326757
0.93890465
0.92326757
0.92326757
0.89881117
0.86255486
0.86255486
0.86255486
0.88306955
0.88306955
0.92330532
0.88327881
1.0250585
1.0261518
0.88327881
0.85980263
0.85980263
0.85980263
0.93932683
0.98230878
0.98723499
0.94826383
0.94826383
0.99176597
0.98723499
0.9790858
0.9790858
1.0250585
1.0279519
1.0279519
0.97057909
0.93932683
0.88327881
1.0250585
1.0261518
0.88327881
0.8810494
0.98230878
0.93932683
0.93131027
0.94826383
0.93131027
0.68907538
0.68907538
0.68907538
0.99176597
0.89371793
0.8810494
1.0279519
1.0250585
1.0250585
0.97057909
0.93932683
0.96494243
0.92326757
0.92326757
0.94539852
0.88606331
0.88606331
0.7486832
0.77787485
0.75161522
0.77741137
0.94826383
0.77741137
0.89371793
0.89371793
0.77741137
0.91796292
0.91796292
0.92330532
0.9716415
0.9716415
0.9716415
0.98042208
0.9716415
0.9716415
0.88306955
0.89998274
0.89998274
0.90551484
0.80564368
0.80564368
0.80564368
0.80564368
0.91796292
0.93890465
0.96494243
0.96494243
0.88606331
0.77787485
0.77787485
0.98723499
0.98230878
0.94539852
0.9790858
0.98723499
0.93131027
1.0279519
0.95781
0.95781
0.98042208
)
;
    }
    top
    {
        type            calculated;
        value           nonuniform List<scalar> 
62
(
1.0113172
1.0113172
1.0113172
1.0163808
1.0158347
1.0163808
1.0113172
1.0163808
1.0113172
1.0163808
1.0113172
1.0113172
1.0113172
1.0158347
1.0158347
1.0158347
1.0163808
1.0158347
1.0158347
1.0158347
1.0158347
1.0163808
1.0158347
1.0158347
1.0158347
1.0163808
1.0163808
1.0113172
1.0163808
1.0163808
1.0113172
1.0113172
1.0113172
1.0113172
1.0113172
1.0113172
1.0113172
1.0158347
1.0158347
1.0163808
1.0158347
1.0158347
1.0158347
1.0163808
1.0158347
1.0158347
1.0158347
1.0158347
1.0113172
1.0163808
1.0113172
1.0113172
1.0163808
1.0158347
1.0158347
1.0158347
1.0158347
1.0163808
1.0163808
1.0158347
1.0158347
1.0113172
)
;
    }
    tower
    {
        type            calculated;
        value           nonuniform List<scalar> 
492
(
0.89824132
0.88834549
0.92189347
0.90461148
0.95580315
0.96731135
0.91905771
0.88627482
0.95328917
0.94719441
0.88720102
0.95006558
0.99922134
0.8505331
0.85057649
0.90397099
0.88916255
0.89259197
0.93012373
0.91483153
0.92212313
0.95458851
0.95319084
0.95215824
0.9482359
0.86097777
0.93803913
0.91300259
0.90240458
0.90321121
0.88132669
0.89490331
0.89535304
0.88398481
0.93932123
0.97105106
0.97162938
0.91395174
0.95362032
0.98795386
0.98897711
0.88748314
0.89186389
0.89159066
0.95811269
1.0053052
0.95404242
1.005564
1.0192016
0.99550569
0.94802261
1.0071064
0.82435099
0.90032962
0.95908982
0.91931719
0.95809326
0.93978529
0.82282094
0.87017206
0.86622982
0.89991426
0.885463
0.88664631
0.95748377
0.95021905
0.95492352
0.91870523
0.94386088
0.94317938
0.87908198
0.87748209
0.95872887
0.9577478
0.98507462
0.93757318
0.93987975
0.93146198
0.9777208
1.020268
0.96069677
1.0199845
0.95609075
0.96278558
0.99282883
0.98631636
0.84293469
0.92767969
0.95639008
1.0041076
0.86647637
0.9314753
0.98004884
0.98276216
0.93893732
0.98094335
0.98313552
0.9213296
0.98365704
0.83707982
0.9033933
0.90965004
0.89444492
0.92136018
0.96871855
0.87088198
0.98759032
0.90609355
0.89040226
0.95216216
1.0097463
0.94647442
1.0091771
0.96097637
0.97844503
0.95918021
0.96738841
0.96352537
0.97890227
0.93407985
0.98003881
0.98109764
0.92803716
0.9186432
0.98034875
0.97277452
0.98193249
0.96869633
0.98180546
0.98129103
0.92487203
0.96791414
0.98171455
0.97355776
0.98192677
0.9902139
0.99099616
0.83421893
0.94336307
0.94513601
0.85026847
0.96927656
0.95259819
0.98048597
0.98267577
0.96709462
0.96603632
0.96143283
0.98079083
0.91573172
0.96776252
0.9414431
0.98346281
0.98167319
0.991817
0.96929484
0.96815076
0.9912564
0.9691738
0.98096781
0.85872894
0.91490242
0.89375998
0.88676964
0.9290767
0.92088698
0.9363792
0.91827859
0.9109724
0.91492108
0.93729584
1.021731
0.965762
0.99791383
0.95327227
1.0025241
0.89247945
0.89969434
0.98252771
0.90422109
0.9366674
0.93032906
0.95380756
0.95929504
0.97891918
0.98227964
0.98154901
0.98080753
0.91484438
0.93077772
0.92126754
0.98167837
0.9793733
0.98050047
0.98174028
0.98340632
0.98215848
0.96527338
0.90806324
0.96289468
0.98357915
0.98237161
0.98224792
0.99565269
0.97999817
0.98236517
0.99268008
0.96678227
0.99378299
0.99227111
0.97738666
0.99570051
0.97800769
0.97812144
0.97794185
0.99100626
0.97847145
0.97858192
0.97931816
0.95717266
0.97962809
0.97969607
0.97972843
0.95064564
0.97994426
0.9806277
0.98004145
0.98070976
0.95218758
0.98079846
0.98087692
0.980908
0.95169603
0.9809942
0.98145795
0.98422516
0.98134407
0.98159893
0.98142376
0.98797359
0.98143851
0.98151634
0.98187202
0.9928878
0.98157408
0.98164735
0.98191431
1.0018072
0.98157044
0.98164257
1.004887
1.0191638
0.96765277
0.89872422
1.0197661
1.0074693
0.92296387
0.87929117
1.0156133
0.97364261
0.8148783
0.85756295
0.90453827
0.89274571
0.95949459
0.97464227
0.94520994
0.94393958
0.87624964
0.95713835
0.98739209
0.93708846
0.90480636
0.96221104
0.96043586
0.95322489
0.96389133
0.96118126
0.96387643
0.97114163
0.93551581
0.93250264
0.92009349
0.92743375
0.9209586
0.92753583
0.96644693
0.97579974
0.97514639
0.96662827
0.92941892
0.92481282
0.93809177
0.96118236
0.97347731
0.98460376
0.98765842
0.98473909
0.99258812
0.9806795
0.96520388
0.91821065
0.88733154
0.86572564
1.0187536
0.91432451
0.93515423
0.95598508
0.94094358
0.9077424
0.85329814
0.83431305
0.84336548
0.9199008
1.0042213
0.92507464
0.98329805
0.99621787
0.98298831
0.98239677
0.97841857
0.97941998
0.97786502
0.98133059
0.98202572
0.98108386
0.98128217
0.97978604
0.97985614
0.98016076
0.98098785
0.9819053
0.98220883
0.98204449
0.98262733
0.98235439
0.98283507
0.98231322
0.98271261
0.98282834
0.95530365
0.95872477
0.96277723
0.96788615
0.97277124
0.96869819
0.93357902
0.93682597
0.97041051
0.97199751
0.96584391
0.96876702
0.97343585
0.97772947
0.98186182
0.98136618
0.83635638
0.8474996
0.88992937
0.92335222
0.92171327
0.92277746
0.92797416
0.90590232
0.9123786
0.91968389
0.90992054
0.95811135
0.92863575
0.97382314
0.9923807
0.95252411
0.94168006
0.98383525
1.0017874
0.93757032
0.86857234
0.93968112
0.9934039
0.93879561
0.92784639
0.92367816
0.92545284
0.961472
0.93092897
0.92280769
0.92819642
0.91925156
0.91170632
0.91861476
0.91854343
0.96423215
0.96741797
0.97912404
0.97891751
0.9769398
1.000514
0.97705848
0.97749884
0.99473743
0.97761546
0.97889411
0.99825239
0.97900117
0.97927879
0.95616091
0.97938244
0.98022908
0.94479199
0.98032327
0.98048384
0.94565269
0.9805752
0.98107941
0.95294156
0.98116328
0.98122457
0.95274087
0.98130627
0.98150826
0.98916477
0.98158439
0.9815534
0.99255062
0.98162802
1.0042088
1.0039585
1.0211371
0.91763777
0.94137724
0.88933817
0.96976521
0.95493769
0.96525191
0.96778121
0.92817777
0.92034165
0.91710746
0.96850226
0.96694723
0.91534211
0.9264736
0.97920362
0.97884831
1.0145715
0.90634512
0.88820145
0.8744866
0.94936544
0.93238893
0.9411027
0.94023301
0.84648581
0.85924074
0.96636001
0.97457064
0.97890485
0.97837141
0.98180191
0.98156554
0.98027997
0.98063937
0.98237779
0.98251087
0.98281802
0.98277908
0.96273851
0.96870497
0.96845927
0.93633911
0.97361809
0.96271659
0.97965636
0.98239193
0.84280531
0.87842376
0.92265582
0.90839681
0.92159936
0.98045382
0.97616476
0.97761314
1.0001651
0.88601643
0.9258973
0.93408151
0.92122452
0.91710146
0.92000833
0.9210148
0.92391759
0.96675583
)
;
    }
    air_to_vegetation
    {
        type            calculated;
        value           nonuniform List<scalar> 
385
(
0.96908334
1.1763875
1.1763875
1.1002874
1.0265349
1.0265349
1.0243405
1.0265349
0.96908334
0.94643585
1.1775593
1.1763875
1.1775593
0.96908334
1.0917435
0.96908334
1.0243405
1.1002874
1.0243405
1.0917435
1.0243405
0.96908334
1.0243405
1.0917435
1.1002874
1.1002874
1.1002874
1.1763875
1.1763875
1.1763875
1.1763875
1.1763875
1.0917435
1.0917435
1.1763875
1.1763875
1.1763875
1.1775593
1.1763875
1.1763875
1.1763875
1.1002874
1.1763875
1.1763875
1.1002874
0.96908334
0.94643585
0.96908334
0.96908334
0.96908334
0.96908334
1.0265349
0.94643585
1.0265349
1.0265349
1.0917435
1.0917435
0.94643585
0.96908334
0.94643585
0.94643585
1.0243405
1.0243384
1.0243384
1.0917435
0.96908334
1.0243384
1.1002874
0.94643585
1.1775593
1.1775593
1.1775593
1.0243405
1.0243405
1.0243405
0.96908334
0.96908334
0.96908334
0.96908334
1.1775593
0.96908334
1.1775593
1.1775593
1.1775593
1.1775593
1.1763875
1.1775593
1.1775593
1.1775593
1.1775593
0.96908334
0.96908334
1.1775593
0.96908334
1.1775593
0.96908334
1.1775593
1.0265349
1.0265349
1.1775593
1.1775593
0.94643585
0.94643585
1.0917435
0.94643585
0.94643585
0.96908334
0.96908334
0.96908334
1.0243405
1.0243405
1.0243405
1.0243405
1.1002874
1.0243405
1.1002874
1.0243405
1.0243405
1.0243405
1.0243405
1.0243405
1.0917435
1.0243384
1.0243384
1.0243384
1.0243384
1.0243405
1.0243405
0.96908334
0.96908334
1.0243405
1.0243405
0.96908334
1.0243405
1.0265349
1.0243384
1.0243384
1.0243384
1.0917435
1.0917435
1.0917435
1.0917435
1.0917435
1.1002874
1.1002874
1.0917435
1.1002874
1.1002874
1.1002874
1.0917435
1.0917435
1.0917435
1.0917435
1.0917435
1.0917435
1.0917435
1.1002874
1.1002874
1.1002874
1.1002874
1.1002874
1.1002874
0.94643585
0.94643585
0.94643585
1.1002874
1.1002874
0.94643585
1.1002874
1.0243384
1.0243384
1.1763875
1.1002874
1.0265349
0.94643585
1.1763875
1.1763875
0.94643585
1.0265349
1.1763875
1.1775593
1.1775593
1.1763875
1.1763875
1.1763875
1.1763875
1.0265349
1.0265349
0.94643585
1.1775593
1.1775593
1.1763875
0.94643585
1.0265349
1.1775593
0.94643585
0.94643585
0.94643585
0.94643585
1.0243384
1.0243384
1.0243405
1.0917435
1.0917435
1.1002874
0.94643585
1.0265349
1.0265349
1.0265349
1.0265349
1.0243384
1.0243384
1.0243384
1.0243384
1.0243384
1.0917435
1.0917435
1.0917435
0.94643585
1.1763875
1.1763875
1.0265349
1.0265349
1.1763875
1.1763875
1.1775593
1.1763875
1.1763875
1.0265349
1.0265349
1.1763875
1.0265349
1.0265349
0.96908334
0.96908334
0.94643585
1.1763875
0.96908334
1.0243384
1.0243384
1.0265349
1.0265349
1.0265349
1.0265349
1.0265349
1.0265349
1.0265349
1.0265349
1.0265349
1.0917435
1.1002874
1.1002874
0.94643585
0.94643585
1.1002874
1.1763875
1.1763875
1.1763875
1.1763875
1.1775593
1.0243405
1.0243405
1.0243405
1.0243405
1.0243405
1.1775593
0.94643585
0.96908334
0.94643585
0.94643585
0.94643585
0.94643585
1.1775593
1.1775593
1.1775593
1.1775593
1.1775593
1.1775593
1.1775593
1.1775593
1.1775593
1.1775593
1.1775593
1.1775593
0.96908334
1.1775593
0.96908334
1.1775593
1.1763875
1.1763875
1.1763875
1.1763875
1.0265349
1.0265349
1.1775593
1.1775593
1.1775593
1.1775593
1.1775593
1.0265349
0.94643585
0.94643585
0.94643585
1.0917435
0.96908334
0.94643585
0.94643585
0.94643585
0.94643585
0.94643585
0.96908334
1.0243405
1.0243405
1.0243405
1.1002874
1.0243405
1.0243405
1.0243405
1.0243405
1.0243405
1.0917435
1.0917435
1.0917435
1.0243384
1.0243384
1.0243405
0.96908334
1.0243384
0.96908334
0.96908334
1.0265349
1.0265349
1.0265349
1.0265349
1.0265349
1.0265349
1.0265349
1.0265349
1.0265349
1.0265349
1.0265349
1.0265349
1.0243384
1.0243384
1.1775593
1.0265349
1.0917435
1.0243384
1.0243384
1.0265349
1.0243384
1.0243384
1.0265349
1.0265349
1.0243384
1.0243384
1.0243384
1.0243384
1.0243384
1.0243384
1.0243384
1.0917435
1.0917435
1.0917435
1.0917435
1.0917435
1.0917435
1.0917435
1.0917435
1.1002874
1.1002874
1.1002874
1.0917435
1.1002874
1.1002874
1.1002874
1.1002874
1.1002874
1.1002874
1.1002874
0.94643585
0.94643585
0.94643585
1.0243384
1.0243405
)
;
    }
    procBoundary13to10
    {
        type            processor;
        value           uniform 0;
    }
    procBoundary13to11
    {
        type            processor;
        value           uniform 0;
    }
    procBoundary13to12
    {
        type            processor;
        value           uniform 0;
    }
    procBoundary13to14
    {
        type            processor;
        value           uniform 0;
    }
    procBoundary13to17
    {
        type            processor;
        value           uniform 0;
    }
}


// ************************************************************************* //
