/*--------------------------------*- C++ -*----------------------------------*\
  =========                 |
  \\      /  F ield         | OpenFOAM: The Open Source CFD Toolbox
   \\    /   O peration     | Website:  https://openfoam.org
    \\  /    A nd           | Version:  8
     \\/     M anipulation  |
\*---------------------------------------------------------------------------*/
/*   Windows 32 and 64 bit porting by blueCAPE: http://www.bluecape.com.pt   *\
|  Based on Windows porting (2.0.x v4) by Symscape: http://www.symscape.com   |
\*---------------------------------------------------------------------------*/
FoamFile
{
    version     2.0;
    format      ascii;
    class       volScalarField;
    location    "0/vegetation";
    object      viewFactorField;
}
// * * * * * * * * * * * * * * * * * * * * * * * * * * * * * * * * * * * * * //

dimensions      [0 0 0 0 0 0 0];

internalField   uniform 0;

boundaryField
{
    left
    {
        type            calculated;
        value           nonuniform List<scalar> 0();
    }
    right
    {
        type            calculated;
        value           nonuniform List<scalar> 0();
    }
    back
    {
        type            calculated;
        value           nonuniform List<scalar> 0();
    }
    front
    {
        type            calculated;
        value           nonuniform List<scalar> 0();
    }
    bottom
    {
        type            calculated;
        value           nonuniform List<scalar> 
289
(
1.0104246
1.0682294
1.0682294
1.0104246
1.0629727
0.89481404
0.89481404
1.0427707
1.0279975
1.0279975
1.1365301
1.0427707
1.0108955
0.88769753
0.91521137
1.0629727
0.82690148
1.0427707
1.1365301
1.0279975
1.0427707
0.90814422
1.1365301
1.0279975
1.0139617
1.0685989
1.0127095
1.0139617
1.0589594
1.0033498
1.0558929
1.0589594
1.057429
0.9538729
1.0685989
1.057429
1.0606754
1.0058172
0.9256988
0.95070555
1.1731012
1.0390224
0.95442164
0.91164105
1.0033498
1.0589594
1.0682294
1.0104246
0.9256988
1.0058172
0.95331681
0.95926914
0.95414656
0.95118323
1.0589594
1.0558929
1.0606754
1.0125882
0.89001313
0.8744049
0.88769753
0.90814422
0.97200192
0.89001313
1.0024294
0.97200192
0.82690148
0.95970747
0.97252275
1.0933872
0.95414656
0.8560414
0.8560414
0.97159086
1.0033498
1.0558929
1.0933872
1.0933872
1.0589594
1.0606754
1.0058172
0.9256988
0.8744049
0.95442164
0.89481404
0.95331681
0.95331681
0.95168729
0.90312528
0.89001313
0.91164105
1.0024294
0.81908888
1.051346
1.0525575
1.0558929
0.95926914
0.92548788
0.90814422
0.66845762
0.79823235
0.79924352
0.79924352
0.95926914
0.88998509
0.95414656
0.95414656
0.81576231
0.79594232
0.95168729
0.95414656
0.66845762
0.91211307
0.8560414
0.66845762
0.79924352
0.89001313
0.88769753
0.88769753
1.1731012
1.051346
1.0427707
0.97200192
0.79594232
0.79594232
0.89001313
0.89001313
0.97200192
1.0525575
1.0525575
0.81576231
0.95168729
0.91521137
0.91521137
0.91211307
0.91211307
0.95168729
1.0685989
1.0139617
1.0104246
1.0682294
1.057429
1.0685989
1.0629727
1.051346
1.0629727
0.88998509
0.88998509
0.88998509
1.0125882
1.0139617
1.0127095
1.0933872
1.0933872
0.89004844
1.0233215
1.057429
0.95118323
0.95070555
1.1365301
0.91657843
0.91657843
0.89004844
0.89004844
0.89004844
1.0108955
1.0108955
1.0108955
0.91521137
0.91521137
0.88769753
1.0525575
1.0525575
1.0629727
0.79823235
0.81908888
0.82690148
1.1365301
1.051346
1.1731012
0.9538729
0.9538729
0.92548788
0.95331681
1.0233215
0.85776419
0.85776419
0.85776419
1.0685989
1.0685989
1.0685989
1.0127095
1.0139617
1.0127095
0.85776419
1.0139617
1.0139617
0.99316763
0.99316763
0.99316763
0.9530442
0.9530442
1.0685989
0.99316763
0.9530442
0.9530442
0.95070555
0.95070555
0.95070555
0.91657843
0.91657843
1.1731012
1.0390224
1.0390224
1.0390224
1.0033498
1.0750367
1.0750367
0.97159086
0.97159086
0.97159086
0.9256988
0.9256988
0.9256988
1.0750367
1.0750367
1.0058172
0.95331681
0.79924352
0.95331681
1.0589594
0.95118323
0.95118323
1.0125882
1.0125882
1.0606754
0.8744049
0.8744049
0.89001313
0.91211307
0.91211307
0.90814422
1.0024294
1.0024294
1.0024294
0.82690148
1.0525575
0.91211307
0.95970747
0.95970747
0.95970747
0.97252275
0.97252275
0.97252275
0.79823235
0.66845762
0.8560414
0.90312528
0.90312528
0.90312528
0.81908888
0.81908888
0.79823235
0.95926914
0.95926914
0.95926914
0.92548788
0.92548788
0.92548788
0.81576231
0.81576231
0.81576231
0.79594232
0.79594232
0.79594232
0.89481404
0.89481404
0.9538729
1.0233215
1.0233215
0.95442164
0.91164105
0.95442164
0.91164105
0.91164105
0.91164105
0.88769753
0.88769753
0.88769753
)
;
    }
    top
    {
        type            calculated;
        value           uniform 0.98380157;
    }
    tower
    {
        type            calculated;
        value           nonuniform List<scalar> 
553
(
0.95194894
0.91245516
0.8860687
0.95535389
1.002843
1.0064661
0.95700349
0.93253698
0.9345211
0.92233155
0.91432319
0.90543771
0.9732313
0.94079742
0.99975094
0.95844159
0.97910509
1.0017141
0.96528077
1.0019689
1.007574
0.93975544
0.95686751
0.9105165
0.93687529
1.0012759
0.95825166
1.0017318
1.0925623
1.0781963
1.0889966
1.0822108
1.0226905
1.0144057
1.0192677
1.0180029
1.0573474
1.0734547
1.0559814
1.0746712
1.0339029
1.041938
1.0438763
1.0333107
1.0932507
1.0894718
1.0496227
1.0488236
1.0484029
1.049309
1.0498792
1.0483247
1.0212354
1.0191494
1.0389448
1.0400324
1.0415114
1.0398638
1.0389699
1.0416188
0.93707793
0.92783809
0.95434727
0.91717315
0.91165555
0.93095798
0.93794968
0.94125082
0.95505635
0.98245168
0.9691362
1.0043368
1.0574497
1.0560554
1.0707097
1.0447647
1.0762012
1.0581737
1.0712104
1.076769
0.98017062
1.0499135
1.0498635
1.058394
0.99900593
1.0705475
1.0337745
1.0438319
0.92919772
0.91299034
0.92051343
0.91437999
0.91196894
0.91976662
0.99462868
0.97958734
0.95641995
0.90850745
0.93077761
0.92761922
0.95725086
0.9296791
0.96067524
0.98345853
0.97954672
0.9357504
0.98985708
1.0208669
0.90032644
0.91911357
0.89837638
0.8966668
0.89996599
0.89991185
0.89646808
0.9709161
1.0197978
0.9989691
0.92569824
0.93697213
0.96879027
0.98218266
1.0037755
0.94347772
0.96999684
1.0074172
0.95234832
0.93145317
0.91815755
0.9395154
0.95496528
0.93307669
0.99944701
0.95521646
0.94507264
0.95164922
0.99881872
0.98457719
0.9706494
0.94986531
0.96259356
0.94615854
0.90015516
0.96738432
0.97069348
0.93915803
0.92535532
0.95947465
0.9914625
0.99961715
0.95150314
1.0145113
0.95558133
0.97328962
0.98689551
0.98906701
0.98342518
0.94117741
0.99036977
0.9792195
0.98385422
0.9811422
0.95103519
0.95144304
0.96643308
0.95323399
0.95472423
0.92648239
0.956202
0.95250196
0.95827625
0.88782776
0.92754053
0.90671093
0.92067089
0.92539634
1.0078881
0.95643237
0.93910766
1.0690928
1.0025235
0.95300857
0.9661062
0.97726587
0.95785862
0.98640821
0.94707445
1.0411463
1.0624243
0.97958373
0.95854529
0.91325189
0.93762761
0.92383702
0.99252274
0.97674919
0.96640282
0.95485571
0.96704241
1.0059121
0.97052982
0.96316326
0.9698431
0.89704624
0.7764994
0.90330715
1.0218649
0.9822277
1.015432
0.9779227
0.74735335
0.9393841
0.77121999
0.91333165
0.90078531
0.96450344
0.92779013
0.89046562
0.87124435
0.85637819
0.87899847
0.85274304
0.79739478
0.86449408
0.82624526
0.81414695
1.0064815
0.94239402
0.98038361
0.99121986
0.97555655
0.96186751
0.94729958
0.93651118
0.93428895
0.91657636
0.96696426
0.98392136
1.0181742
1.019785
1.0287666
1.0136058
0.96556588
0.94645047
0.93618202
0.93257199
0.99862657
0.95450009
0.98143398
0.95061087
0.96473853
0.94453086
0.83812349
0.95395429
0.98871198
0.81472567
0.89315941
0.89396899
0.84717991
0.84235761
0.93971359
0.93797462
0.95304039
0.91783652
0.9411861
0.90043744
0.89642444
0.94618659
0.93517056
0.94661119
0.95445323
0.94038027
0.98244533
0.90614156
0.88701532
0.91889341
1.0039476
1.0739019
1.0380841
1.0231156
1.0325584
1.0271533
1.0295052
1.0533699
1.0213872
1.0016193
1.0459336
1.0563178
0.99025223
1.0234351
1.0319682
0.94013783
0.94262618
0.94735103
0.96756117
0.96952314
1.028011
1.0388111
0.96463397
1.0335699
1.0276218
1.0174562
1.0088493
1.0902797
1.1024266
1.0481945
1.0499039
1.0182105
1.0203298
1.0383979
1.0419611
0.98217485
0.89393131
0.91096584
1.0117343
0.91443355
1.0358776
1.0384774
1.0791746
1.0100229
1.0443175
1.0756851
1.0767271
1.0420724
1.0576874
1.059659
1.0773423
1.0722881
1.0721825
1.0280287
0.98452818
1.0069158
1.0104021
1.0250969
1.0431547
1.0326684
1.0042521
1.0105027
0.92492245
0.92042317
1.0146224
1.0191941
0.97857375
1.0283662
1.0409243
0.95636564
0.94612408
1.0318185
0.98091096
1.0028888
0.9257137
0.99118006
1.0066325
0.85202964
0.90116077
0.88522398
0.94608499
0.95408681
0.9602023
0.95377604
1.0047927
1.0278954
1.0059419
1.0185098
0.99569992
1.009398
1.0103181
0.98874648
1.0469291
1.0713088
1.0764587
1.0401364
0.9566009
0.99529508
0.97289975
0.98229295
1.0178923
1.0479638
0.99332851
1.0306415
1.0179572
1.0546905
1.020394
1.0584165
1.0067144
1.0544207
0.99952342
1.0334653
0.99256914
1.0042482
0.9983646
0.99724026
0.97922961
1.0605701
1.0407234
0.99901587
0.96592844
0.96573829
1.0129678
1.0129972
1.0054523
1.0198064
0.98442746
0.99681299
0.98645617
0.99464708
0.98198851
1.0056596
1.024353
1.0079954
1.0096718
1.0231831
0.98398162
1.0064864
0.98332715
1.0061341
1.0109282
1.0258798
1.0250375
1.0106223
1.0072665
1.0080159
1.0058583
0.95507613
0.9570911
0.97170412
0.96526921
0.99876671
0.98647457
0.99656139
0.94109414
1.0044382
0.96603353
0.94257353
0.94363168
1.0221176
0.99975854
1.0455535
1.0221019
1.0300803
1.0487329
1.0199468
0.98908272
1.0159469
1.0188963
1.0186773
1.0148199
1.0415766
1.0413568
1.0410385
1.0421686
1.0918439
1.1040076
1.0945433
1.0904492
1.0484665
1.0479712
1.0474233
1.0512885
0.93828184
1.0362453
1.0771283
1.074046
1.0348181
1.0589114
1.0579509
1.0605686
1.05659
1.0784971
1.0809746
1.0720434
1.0741313
1.0083453
0.99826628
0.99900705
1.0079462
1.0411465
1.0315666
1.0287194
1.0399328
1.0033367
1.0095907
1.0091745
1.0020872
0.91378906
0.92017338
0.93888808
0.95062923
1.0050786
0.97457098
1.0025642
0.843562
0.85271872
1.0034031
0.98166065
1.0019153
0.97640056
0.96808903
0.97870599
0.99002571
0.9733003
0.9652847
0.96225435
0.95751634
0.95848962
0.95260061
1.0805554
1.0952796
1.0259626
1.0221476
1.0107301
0.99919675
1.0283825
1.0152602
1.0331523
1.0280968
1.0347755
1.0252092
1.0203125
1.0305003
1.0307924
1.0257269
1.0654965
1.0751049
1.0167182
1.0110731
1.0008809
1.0139663
0.99825492
1.0076819
1.0735562
1.0563129
1.0162415
0.99913203
1.0082794
1.0156767
1.0272397
1.0181538
0.99316655
0.99115071
1.0020848
1.0055301
0.98664208
0.99843561
1.0056051
0.99680924
1.0086328
0.99392143
1.0041912
0.99193782
1.0004714
0.98964136
0.99553575
)
;
    }
    air_to_vegetation
    {
        type            calculated;
        value           nonuniform List<scalar> 
385
(
1.0854485
1.0079981
1.1794809
1.1370003
1.2378821
1.1370003
1.0079981
1.0423106
1.0079981
1.0079981
1.0854485
0.21979625
1.2378821
1.2378821
1.0854485
1.0854485
1.1794809
1.2378821
1.2378821
1.0079981
1.0079981
1.0079981
1.0079981
1.1794809
1.0423106
1.0423106
1.1794809
1.2378821
1.0854485
1.0854485
1.0854485
1.0854485
1.0854485
1.0854485
1.0854485
1.2378821
1.2378821
1.0854485
1.0079981
1.0079981
1.1794809
1.0079981
1.0854485
0.21979625
1.0210543
1.0210543
1.0210543
1.0079981
0.21979625
0.21979625
0.21979625
1.0210543
1.2378821
1.2378821
1.2378821
1.2378821
1.2378821
1.2378821
1.2378821
1.2378821
1.0854485
1.0854485
1.0854485
1.0854485
1.2378821
1.2378821
1.2378821
1.1794809
1.2378821
1.2378821
1.2378821
1.2378821
1.1794809
1.1794809
1.2378821
1.2378821
1.1794809
1.1794809
1.1794809
1.1794809
1.1794809
1.0079981
1.0079981
1.0079981
1.0079981
1.1794809
1.1794809
1.1794809
1.0079981
1.1794809
1.1794809
1.2378821
1.1794809
1.1794809
1.1794809
1.1794809
1.1794809
1.1794809
1.0423106
1.0423106
1.0423106
1.1794809
1.0423106
1.0423106
1.1794809
1.0423106
1.0079981
1.0079981
1.1370003
1.2378821
1.0210543
1.0854485
1.0854485
1.0854485
1.0079981
1.0079981
1.0079981
1.0079981
1.1370003
1.1370003
1.0423106
1.0423106
0.21979625
1.0423106
1.0210543
1.0423106
1.0423106
1.0854485
1.1370003
1.1370003
1.1370003
1.1370003
1.0210543
1.0210543
1.0210543
1.0079981
0.21979625
1.0210543
0.21979625
0.21979625
1.0423106
1.0423106
0.21979625
0.21979625
1.0210543
1.0210543
1.0210543
0.21979625
1.1370003
1.0210543
1.1370003
1.1370003
1.0210543
1.0423106
1.0423106
1.2378821
0.21979625
0.21979625
0.21979625
1.0423106
1.0423106
1.0423106
1.0423106
1.2378821
1.0854485
1.0423106
1.1370003
1.1370003
1.2378821
1.1794809
1.1794809
1.2378821
1.2378821
1.2378821
1.1794809
1.1370003
1.1794809
0.21979625
1.1794809
1.1794809
1.1794809
1.1794809
1.1794809
1.1370003
1.1370003
1.1370003
1.1370003
1.1370003
1.1370003
1.1370003
1.1370003
1.1370003
1.1370003
1.1370003
1.1370003
1.1370003
1.0423106
1.0423106
1.0423106
1.0423106
1.0423106
1.0423106
1.1370003
1.1370003
1.1794809
1.1370003
1.2378821
1.0854485
1.1794809
1.1794809
1.1794809
1.0079981
0.21979625
0.21979625
0.21979625
1.0854485
1.0210543
1.1370003
1.1370003
1.0210543
0.21979625
1.0210543
1.0210543
1.1370003
1.2378821
1.2378821
1.2378821
1.0423106
1.0854485
1.2378821
1.0854485
1.2378821
1.0423106
1.1370003
1.0854485
1.2378821
1.0854485
1.1370003
1.1370003
1.1370003
1.1370003
1.2378821
1.2378821
1.2378821
1.1794809
1.1794809
1.1794809
1.1794809
1.1794809
1.1794809
1.1370003
1.1794809
1.1794809
1.0079981
1.1794809
1.0079981
1.1794809
1.0079981
1.1794809
1.1794809
1.1794809
1.1794809
1.1794809
1.1794809
1.1794809
1.1794809
1.1794809
1.1794809
1.1794809
1.1794809
1.1370003
1.1370003
1.1370003
1.1370003
1.1370003
1.1370003
1.1370003
1.1370003
1.1370003
1.0423106
1.0423106
1.0423106
1.0423106
1.1370003
1.1370003
1.1370003
1.1370003
1.1794809
1.1794809
1.1794809
1.1794809
1.0423106
1.0423106
0.21979625
1.0423106
1.0210543
1.1370003
1.2378821
1.1370003
1.2378821
1.1370003
1.0854485
1.0854485
1.0854485
1.0854485
1.0854485
0.21979625
0.21979625
0.21979625
0.21979625
1.1370003
1.1370003
1.1794809
1.1794809
1.1794809
1.1794809
1.1370003
1.1370003
1.1370003
1.1370003
1.1370003
1.1370003
1.1370003
1.1370003
1.1370003
1.0854485
1.0423106
1.0423106
1.0423106
1.0423106
1.0423106
1.0423106
1.0210543
1.0210543
1.0854485
1.1370003
1.0854485
1.0854485
1.1370003
1.1370003
1.0210543
1.0210543
1.0210543
1.0210543
1.0210543
1.0210543
1.0210543
1.0210543
1.0079981
1.0079981
1.0079981
1.0079981
1.0210543
1.0210543
1.0079981
1.0079981
0.21979625
0.21979625
0.21979625
0.21979625
0.21979625
1.0210543
0.21979625
1.0210543
0.21979625
0.21979625
1.0210543
1.0210543
1.0210543
0.21979625
0.21979625
1.0210543
0.21979625
1.0210543
1.1370003
1.0210543
1.0210543
1.1370003
0.21979625
1.0210543
1.1370003
1.1370003
1.1370003
1.0210543
1.0210543
)
;
    }
    procBoundary17to11
    {
        type            processor;
        value           uniform 0;
    }
    procBoundary17to13
    {
        type            processor;
        value           uniform 0;
    }
    procBoundary17to14
    {
        type            processor;
        value           uniform 0;
    }
    procBoundary17to15
    {
        type            processor;
        value           uniform 0;
    }
    procBoundary17to16
    {
        type            processor;
        value           uniform 0;
    }
    procBoundary17to18
    {
        type            processor;
        value           uniform 0;
    }
    procBoundary17to19
    {
        type            processor;
        value           uniform 0;
    }
}


// ************************************************************************* //
