/*--------------------------------*- C++ -*----------------------------------*\
  =========                 |
  \\      /  F ield         | OpenFOAM: The Open Source CFD Toolbox
   \\    /   O peration     | Website:  https://openfoam.org
    \\  /    A nd           | Version:  8
     \\/     M anipulation  |
\*---------------------------------------------------------------------------*/
/*   Windows 32 and 64 bit porting by blueCAPE: http://www.bluecape.com.pt   *\
|  Based on Windows porting (2.0.x v4) by Symscape: http://www.symscape.com   |
\*---------------------------------------------------------------------------*/
FoamFile
{
    version     2.0;
    format      ascii;
    class       volScalarField;
    location    "0/vegetation";
    object      viewFactorField;
}
// * * * * * * * * * * * * * * * * * * * * * * * * * * * * * * * * * * * * * //

dimensions      [0 0 0 0 0 0 0];

internalField   uniform 0;

boundaryField
{
    left
    {
        type            calculated;
        value           nonuniform List<scalar> 0();
    }
    right
    {
        type            calculated;
        value           nonuniform List<scalar> 0();
    }
    back
    {
        type            calculated;
        value           nonuniform List<scalar> 0();
    }
    front
    {
        type            calculated;
        value           nonuniform List<scalar> 0();
    }
    bottom
    {
        type            calculated;
        value           nonuniform List<scalar> 
195
(
1.0280484
1.0040802
1.0930743
1.090444
1.1406945
1.1406945
1.1550578
1.2172925
1.0280484
1.090444
1.0040802
1.0280484
1.0040802
1.0930743
1.0930743
1.1406945
1.1406945
1.090444
1.1550578
1.090444
1.1550578
1.1550578
0.70449474
1.2172925
1.2172925
0.70449474
1.2382034
1.2172925
0.70449474
1.2382034
1.2382034
0.70449474
0.9908535
0.99364323
0.99035136
1.0042085
1.0775188
1.0616451
1.022008
1.0297992
1.015645
1.1589663
1.1803846
1.0616451
1.0918961
1.0918961
1.0808714
1.1589663
1.1368651
1.2553219
1.2885388
1.1637454
1.1389918
1.1389918
1.0837944
1.2553219
1.2885388
1.2969516
1.1973149
1.1637454
1.1406945
1.1368651
1.1803846
1.2969516
1.0035984
1.0280484
0.9908535
0.99364323
0.99364323
0.99364323
1.022008
1.022008
1.0280484
1.015645
1.015645
1.0042085
1.0775188
1.1803846
1.0775188
1.0040802
1.0616451
1.0616451
1.0616451
1.022008
1.051039
1.051039
1.0808714
1.0808714
1.015645
1.1803846
1.2885388
1.1589663
1.2969516
1.2885388
1.1803846
1.0616451
1.1637454
1.1973149
1.0918961
1.1637454
1.0616451
1.051039
1.0837944
1.0918961
1.1589663
1.0837944
1.0808714
1.1368651
1.1406945
1.0930743
1.1930902
1.2553219
1.2438317
1.2438317
1.1803846
1.1803846
1.1803846
1.1803846
1.2969516
1.0775188
1.0035984
1.0042085
1.0042085
0.9908535
0.9908535
0.9908535
1.0042085
1.0042085
1.3240439
1.3240439
1.2553219
1.1389918
1.1930902
1.1930902
1.1930902
1.0808714
1.0837944
1.051039
1.0297992
1.0297992
1.0297992
0.99035136
0.99035136
0.99035136
0.9908535
1.0035984
1.0035984
1.2204782
1.2204782
1.2393421
1.1389918
1.1389918
1.1389918
1.2204782
1.2204782
1.2393421
1.3110371
1.3110371
1.3110371
1.1973149
1.1973149
1.1511089
1.1368651
1.1368651
1.1511089
1.2882338
1.2882338
1.2882338
1.1637454
1.2393421
1.2393421
1.2885388
1.2885388
1.2882338
1.1511089
1.1511089
1.1511089
1.1406945
1.2382034
1.2382034
1.3488466
1.3488466
1.3488466
1.2438317
1.2438317
1.2969516
1.2969516
1.3110371
1.2553219
1.2553219
1.3488466
1.3240439
1.3240439
1.3240439
1.1930902
)
;
    }
    top
    {
        type            calculated;
        value           nonuniform List<scalar> 0();
    }
    Building
    {
        type            calculated;
        value           nonuniform List<scalar> 
840
(
1.0203338
1.0204396
1.0206565
1.0207335
1.0207587
1.0208356
1.0208564
1.0209333
1.0205512
1.0206283
1.0205196
1.0192321
1.0190707
1.0193694
1.0192082
1.0196503
1.0193531
1.0187721
1.0192002
1.0194978
1.0196755
1.0198455
1.0199897
1.0201323
1.0203018
1.0201417
1.019811
1.0198083
1.0199688
1.0189175
1.0189099
1.0190551
1.0193451
1.0190525
1.0191976
1.0196587
1.0195115
1.0193505
1.0198198
1.019972
1.0200217
1.0194978
1.0196559
1.0195114
1.0202044
1.0201657
1.0203483
1.0205906
1.020394
1.0207341
1.0205376
1.015338
1.0148978
1.0143041
1.0147524
1.0155563
1.0155039
1.0150602
1.0160106
1.0157247
1.0167095
1.0164011
1.0161828
1.0139654
1.0154066
1.0149137
1.0149455
1.0155739
1.0155988
1.0160853
1.0228456
1.0136412
1.0108629
1.0137487
1.01695
1.0168887
1.0174381
1.0165774
1.0113273
1.0142861
1.0149335
1.016259
1.0151979
1.0151737
1.0150496
1.0147369
1.0153981
1.0157127
1.0153626
1.0156712
1.0152132
1.0152241
1.0158658
1.0158401
1.0158947
1.0158899
1.0165657
1.0165321
1.0162395
1.0160663
1.0160367
1.0163566
1.014287
1.0145911
1.0142846
1.0139878
1.0114418
1.0118506
1.0171175
1.0167765
1.0167372
1.0170752
1.0172819
1.0172529
1.0164145
1.0165912
1.0116649
1.0120116
1.0126128
1.0129512
1.0146104
1.0152511
1.014624
1.0145924
1.0152504
1.0152748
1.0147791
1.0150766
1.0157428
1.0154356
1.0159499
1.0159133
1.0161167
1.0164344
1.0212256
1.0210125
1.020973
1.0208917
1.0211399
1.0213273
1.0212417
1.0208679
1.0208228
1.0206539
1.0207867
1.020491
1.0210557
1.0210749
1.0211575
1.0208119
1.0209937
1.020914
1.0213129
1.0219707
1.0146092
1.0215845
1.0210967
1.0218664
1.0216784
1.0214018
1.0214146
1.0215034
1.0218714
1.0220719
1.0219727
1.0152629
1.0214923
1.021686
1.0215938
1.0214799
1.0209978
1.0211793
1.0215738
1.0215628
1.0213675
1.021774
1.0217798
1.0218754
1.0228349
1.0227324
1.0229471
1.0096292
1.0094819
1.0220718
1.0159397
1.0112786
1.0224959
1.0219676
1.0225552
1.0023746
1.0091427
1.0007848
1.0011526
1.0034892
1.0223869
1.0227202
1.0229355
1.022821
1.0223919
1.0223127
1.0221923
1.0230475
1.0230532
1.0231532
1.0227464
1.022952
1.022853
1.0126569
1.0119245
1.0129682
1.0221749
1.022173
1.022276
1.022607
1.0225968
1.0227079
1.0222829
1.0217655
1.0219754
1.0226496
1.0226621
1.0227563
1.0222799
1.0224878
1.0223809
1.0224631
1.0222236
1.0223734
1.0225701
1.0224804
1.0211208
1.021035
1.0209235
1.0214247
1.0150346
1.0213391
1.0148875
1.0211724
1.021255
1.0210913
1.0210116
1.0209507
1.0207564
1.0208423
1.0207068
1.0206781
1.0205952
1.0155447
1.0215118
1.0155288
1.0216006
1.0153782
1.0156965
1.0217831
1.021691
1.0212081
1.0212971
1.021189
1.0217589
1.021767
1.0216559
1.0160536
1.0221688
1.0163834
1.0220696
1.0162265
1.0162092
1.0218768
1.0219723
1.0213876
1.021372
1.0212763
1.0216696
1.0214626
1.0215619
1.0226167
1.022632
1.0225063
1.0133084
1.0136283
1.01095
1.0112667
1.0115898
1.0120025
1.0230322
1.0229175
1.0226934
1.0228044
1.0218565
1.0220707
1.0219635
1.0231448
1.0232502
1.0169355
1.0222698
1.0169168
1.0223727
1.0170983
1.0225844
1.0224776
1.0167555
1.0225032
1.0222808
1.0223964
1.0224401
1.0225348
1.0224126
1.0116056
1.0119571
1.0123964
1.0123573
1.0122858
1.0122726
1.0126218
1.0132915
1.0142939
1.0146191
1.0139572
1.0149424
1.0221757
1.0221758
1.0220647
1.0223478
1.022258
1.0221303
1.0144596
1.0151044
1.0149464
1.0156093
1.015773
1.0162966
1.0199799
1.0201558
1.0201376
1.0203132
1.0220076
1.0203009
1.0206455
1.0210162
1.0204774
1.0208485
1.0221172
1.0220016
1.0212478
1.0220361
1.0222244
1.0221433
1.0216655
1.0222005
1.0220849
1.021415
1.0222858
1.0223076
1.0223929
1.0218324
1.0204701
1.0204763
1.0206454
1.0208275
1.0208206
1.0210023
1.021212
1.0213864
1.0211908
1.0206596
1.0203175
1.0204999
1.0210445
1.0208853
1.020689
1.0218769
1.0219204
1.0217926
1.0210887
1.0214567
1.0212978
1.0219572
1.0221704
1.0220458
1.0215892
1.0217983
1.0216237
0.99642748
1.0175756
1.0517862
1.0151587
1.0171323
1.0182002
1.0176905
1.0176254
1.0536973
1.0160054
1.018388
1.0178728
1.0157537
1.0154107
1.0159028
1.0163455
0.99571196
0.99693069
1.0146527
1.0151537
1.0154645
1.0171859
1.0176978
1.0128796
1.0151774
1.0153271
1.0170083
1.0165067
0.99454741
1.0155824
1.0152195
1.014784
1.0150521
1.0157232
1.0161816
1.0156596
0.99521535
0.99498576
1.0148624
1.0149307
1.0151798
1.0144103
1.0169694
1.0170097
1.0175155
1.0167901
1.016277
0.99437902
1.0149502
1.0151259
1.0145619
1.0143749
1.0141669
1.0168415
1.0163428
1.0159926
1.0152837
1.0156047
0.99544617
0.99582524
0.99540567
1.0142233
1.012576
1.0173165
1.0173015
1.0180364
1.0180069
1.0175083
1.0178655
1.0174676
1.017815
1.0178724
1.0377085
1.0169478
1.0167278
1.0182244
1.0185595
1.0180411
1.018053
0.99476002
0.99461957
1.0156263
1.0159209
1.0156153
1.0155251
1.0160475
1.0160649
1.0165042
1.0161884
0.99550187
0.99592286
0.99580055
1.0151519
1.0154105
1.015816
1.0152192
1.0173513
1.0173482
1.0178656
1.0175241
1.0154292
1.0152126
1.0155325
1.0152614
1.0171695
1.0168388
1.0166654
1.0166714
1.0132958
1.0129747
0.99561823
0.99603337
1.0085767
1.0224609
1.0150821
1.0136487
1.0154501
1.0154415
1.0153284
1.015044
1.0158709
1.0155646
1.016024
1.0160315
1.0149449
1.0147422
1.015103
1.0150234
1.0171486
1.0168126
1.0171763
1.0168413
1.0173295
1.0173435
1.0166189
1.0166465
1.0149907
1.0147543
1.0150494
1.0149468
1.0166735
1.0166941
1.016507
1.0161873
1.037392
0.9948768
1.0541497
1.0134248
1.0542851
1.0129523
1.0212486
1.1072463
0.99492931
0.99474627
1.0143205
1.0135994
1.0146353
1.0155879
0.99529645
1.0357122
0.99681311
1.0387369
1.0145913
1.0515562
1.0141492
0.99854868
1.0533596
0.99553493
1.0371623
0.99620345
0.99636857
0.99626738
0.99630584
0.99639592
0.99643238
0.99649547
0.99633217
0.99475704
1.0139703
1.0130949
1.0153477
0.99407926
0.99437943
0.99422661
0.99424818
0.99456793
0.99452917
0.99441119
0.99467502
0.99498383
0.99439698
1.0166213
0.99278489
0.99328373
0.99325169
0.99287725
0.99563864
0.99558846
0.99570649
0.99551845
0.99588755
0.99607896
0.99318798
0.99336852
0.99348442
0.99302104
0.99526858
0.99546804
0.99534439
0.99539515
0.99483153
0.99378341
0.99429268
0.99354726
0.99609616
0.99604884
0.99616019
0.99598441
0.99629003
0.99611472
0.99622547
0.99617977
0.99645849
0.99661862
0.99655757
0.99651988
0.99635315
0.99630602
0.99624358
0.99641477
0.9942956
1.0144144
1.0146611
1.0140186
1.0139406
1.0137436
1.0163001
1.014967
1.0149562
1.0159139
1.0152783
0.99390474
0.99391687
0.99407163
0.99372632
0.99471856
0.99495425
0.9948167
0.99486343
0.99567242
0.99279926
0.99347978
0.99300914
0.99330592
0.99575607
0.99593623
0.99587115
0.99582229
0.99336477
0.99376475
0.99361891
0.9935454
0.99513785
0.99508786
0.99500302
0.99521781
1.0375502
0.99496581
0.99672795
0.99505702
0.99486275
0.99541726
0.99612641
0.99600808
0.99643076
0.99613776
0.99663907
0.99667851
0.99658027
0.99673714
0.99659211
0.99654013
0.9964842
0.99664766
0.99653434
0.99636726
0.99647528
0.99642645
0.99363699
1.0637308
0.99368624
1.1193069
0.99451245
0.99437442
0.9945199
0.99464899
0.99464968
0.99478517
0.99490059
0.99477035
0.99365348
0.99367354
0.99406255
0.99398691
0.99551517
0.99470995
1.0137138
1.0138929
0.99566102
0.9957761
0.99584368
0.99573499
1.0132172
1.0124727
0.99464923
0.99409831
0.99400484
0.994812
1.0174877
1.0178456
1.0176761
1.0176555
1.029816
1.0045264
1.0053336
1.0199166
0.9956354
0.9933112
1.0183858
0.99614078
0.99624513
1.0182162
0.99603546
0.99592448
0.99368938
0.99376285
0.99402159
0.99398132
0.99510201
0.99494464
0.99479789
0.99456608
1.0157993
0.99394004
0.99412539
1.0156922
0.99374575
0.99354279
1.0161973
0.994469
0.99430144
1.0163477
0.99462828
0.99478017
0.99554398
0.9954239
0.99550532
0.99562575
0.99536592
0.99515061
0.99558391
1.0154012
0.99228807
0.99245456
1.0154659
0.99224774
0.99249153
1.0175158
0.99557638
0.99545433
1.0176904
0.99569519
0.9958111
1.0154507
0.992891
0.99266698
1.0154829
0.99311405
0.99333197
1.0169989
0.99519894
0.99532865
1.0168382
0.99506469
0.99492528
0.99410379
0.99423742
0.9944031
0.99428385
1.0137097
1.013626
1.0126802
1.0133536
0.99504862
0.99491819
0.99502107
0.995149
0.99394417
0.99451837
0.99377109
0.99422617
0.99600287
0.9960687
0.99589024
0.99595506
0.99619565
0.9961334
0.9960213
0.99397703
0.99386141
0.99408841
0.99418227
0.99517645
0.99530155
0.99539134
0.9952665
0.99554239
0.99522707
0.99492439
0.99631491
0.9963746
0.99625638
0.99625657
0.99631648
0.99619988
1.0009875
1.0127797
1.0153021
1.0151628
1.0157191
1.0158681
1.0147789
1.0148919
1.0169772
1.0169918
1.0171368
1.016466
1.0147978
1.0148601
1.016516
1.0163564
0.99623535
0.99685914
0.99690503
0.99680619
0.99695796
0.99648482
0.99675413
0.99659448
0.99670177
0.99664632
0.99669642
0.99685031
0.99679443
0.99675225
0.9963674
0.99653678
0.99642085
)
;
    }
    air_to_vegetation
    {
        type            calculated;
        value           nonuniform List<scalar> 0();
    }
    procBoundary4to0
    {
        type            processor;
        value           uniform 0;
    }
    procBoundary4to3
    {
        type            processor;
        value           uniform 0;
    }
    procBoundary4to5
    {
        type            processor;
        value           uniform 0;
    }
    procBoundary4to11
    {
        type            processor;
        value           uniform 0;
    }
}


// ************************************************************************* //
