/*--------------------------------*- C++ -*----------------------------------*\
  =========                 |
  \\      /  F ield         | OpenFOAM: The Open Source CFD Toolbox
   \\    /   O peration     | Website:  https://openfoam.org
    \\  /    A nd           | Version:  8
     \\/     M anipulation  |
\*---------------------------------------------------------------------------*/
/*   Windows 32 and 64 bit porting by blueCAPE: http://www.bluecape.com.pt   *\
|  Based on Windows porting (2.0.x v4) by Symscape: http://www.symscape.com   |
\*---------------------------------------------------------------------------*/
FoamFile
{
    version     2.0;
    format      ascii;
    class       volScalarField;
    location    "0/air";
    object      gcr;
}
// * * * * * * * * * * * * * * * * * * * * * * * * * * * * * * * * * * * * * //

dimensions      [0 0 0 0 0 0 0];

internalField   uniform 0;

boundaryField
{
    left
    {
        type            slip;
    }
    right
    {
        type            slip;
    }
    back
    {
        type            fixedValue;
        value           nonuniform List<scalar> 0();
    }
    front
    {
        type            fixedValue;
        value           uniform 0;
    }
    bottom
    {
        type            fixedValue;
        value           uniform 0;
    }
    top
    {
        type            slip;
    }
    tower
    {
        type            fixedValue;
        value           uniform 0;
    }
    procBoundary6to5
    {
        type            processor;
        value           uniform 0;
    }
    procBoundary6to8
    {
        type            processor;
        value           uniform 0;
    }
    procBoundary6to9
    {
        type            processor;
        value           uniform 0;
    }
}


// ************************************************************************* //
