/*--------------------------------*- C++ -*----------------------------------*\
  =========                 |
  \\      /  F ield         | OpenFOAM: The Open Source CFD Toolbox
   \\    /   O peration     | Website:  https://openfoam.org
    \\  /    A nd           | Version:  8
     \\/     M anipulation  |
\*---------------------------------------------------------------------------*/
/*   Windows 32 and 64 bit porting by blueCAPE: http://www.bluecape.com.pt   *\
|  Based on Windows porting (2.0.x v4) by Symscape: http://www.symscape.com   |
\*---------------------------------------------------------------------------*/
FoamFile
{
    version     2.0;
    format      ascii;
    class       volScalarField;
    location    "0";
    object      thickness;
}
// * * * * * * * * * * * * * * * * * * * * * * * * * * * * * * * * * * * * * //

dimensions      [0 0 0 0 0 0 0];

internalField   uniform 0;

boundaryField
{
    left
    {
        type            fixedValue;
        value           uniform 0;
    }
    right
    {
        type            fixedValue;
        value           uniform 0;
    }
    back
    {
        type            fixedValue;
        value           uniform 0;
    }
    front
    {
        type            fixedValue;
        value           uniform 0;
    }
    bottom
    {
        type            fixedValue;
        value           uniform 0;
    }
    top
    {
        type            fixedValue;
        value           uniform 0;
    }
    vegetation
    {
        type            fixedValue;
        value           uniform 0;
    }
    tower
    {
        type            fixedValue;
        value           nonuniform List<scalar> 
5258
(
0
0
0
0
0
0
0
0
0
0
0
0
0
0
0
0
0
0
0
0
0
0
0
0
0
0
0
0.54139342
0.54484679
0.54484679
0.54041867
0.54292621
0.54232943
0.54139343
0.54292621
0.54041868
0.14383334
0.54599262
0.54599806
0.15164331
0.54599714
0.54599949
0.54597058
0.54599996
0.546
0.54599949
0.54599989
0.54599996
0.14355529
0.54599261
0.54567261
0.15163554
0.54143692
0.54150568
0.10363024
0.1562456
0.13501134
0.13503696
0.54509031
0.54171911
0.5422471
0.54597047
0.52538288
0.52506428
0.54238558
0.35049616
0.34881643
0.54525445
0.13615204
0.54589008
0.54509938
0.1343122
0.10363063
0.15621658
0.13501295
0.13500409
0.54509031
0.54599989
0.54599909
0.54599645
0.54595736
0.30405929
0.39028008
0.54599905
0.10856458
0.10861743
0.024105505
0.1560579
0.31081614
0.53885593
0.54423575
0.53693655
0.54370534
0.5369433
0.54370836
0.54334533
0.54335821
0.39023153
0.54336419
0.02419261
0.12321833
0.12320931
0.068788071
0.12311651
0.54599833
0.10838697
0.54342508
0.065709964
0.10863223
0.53282674
0.31021606
0.53252306
0.53252006
0.54143692
0.54150569
0.5459999
0.30406096
0.39040799
0.54599905
0.54599989
0.54599909
0.54599645
0.10861743
0.024105495
0.10856458
0.54335035
0.54336361
0.39022988
0.54337186
0.31081614
0.53885593
0.54423575
0.53693656
0.54370534
0.53694331
0.54370837
0.1361544
0.54589008
0.54509938
0.13431263
0.53653219
0.53879338
0.54416579
0.12393778
0.53761822
0.13569418
0.54321318
0.14358977
0.12371142
0.12371583
0.12311658
0.024949989
0.5230056
0.17854607
0.53279798
0.3482045
0.5361653
0.54171912
0.54224711
0.54597047
0.53761822
0.13569315
0.54323736
0.14362108
0.5365322
0.53879339
0.5441658
0.12393778
0.54504942
0.34994932
0.5442463
0.54504539
0.54531425
0.54596257
0.5419751
0.37351578
0.37357413
0.54111142
0.1361855
0.54398106
0.54502808
0.13607812
0.14387998
0.54553226
0.54599805
0.14371122
0.54504539
0.54599514
0.54534975
0.54594869
0.35510384
0.35507605
0.5456447
0.11825502
0.31096822
0.068564441
0.54576723
0.11825456
0.54563934
0.54564223
0.11824924
0.54326413
0.33215964
0.3321507
0.54325971
0.54461462
0.18739357
0.33207874
0.31095113
0.54599986
0.35510717
0.35521834
0.545732
0.54599514
0.54534975
0.11825535
0.31096822
0.068564429
0.54576723
0.11825496
0.54563934
0.54564223
0.11824959
0.13618802
0.54398107
0.54502808
0.13607944
0.14359332
0.54536242
0.54564594
0.14363619
0.024928034
0.54567337
0.1182386
0.1168144
0.1240217
0.33206562
0.54452257
0.068211886
0.54531425
0.54596257
0.024928035
0.54567337
0.11823888
0.1168144
0.54599805
0.54234423
0.54371318
0.14464813
0.52890584
0.53294961
0.54599889
0.546
0.546
0.54599993
0.546
0.546
0.54599991
0.546
0.546
0.546
0.546
0.546
0.54599473
0.54234032
0.5436652
0.14453879
0.52889609
0.53283481
0.12146301
0.12451183
0.1220631
0.12207067
0.36850372
0.36848825
0.36824102
0.36848322
0.36853372
0.36911624
0.54553594
0.4796744
0.48653839
0.14146768
0.14146002
0.14148256
0.14145914
0.35682188
0.54103478
0.54205759
0.54534908
0.54513335
0.54522725
0.14153004
0.1423667
0.54260958
0.36913555
0.36824856
0.54592526
0.54100912
0.54274129
0.13635107
0.52389771
0.52900316
0.12145356
0.12449597
0.12204613
0.12204656
0.33434196
0.53977339
0.54225385
0.54599958
0.54493412
0.54548837
0.10197771
0.086847091
0.10735261
0.10345348
0.11726436
0.43242377
0.43041333
0.24714729
0.42654528
0.43272164
0.43285038
0.43270984
0.43285041
0.43569891
0.4356968
0.4356632
0.43569644
0.43571187
0.43578311
0.27093166
0.43368211
0.12327365
0.12327145
0.11783558
0.1201912
0.055505603
0.086798198
0.10743612
0.10842373
0.15923983
0.27978027
0.2878696
0.28412646
0.28797104
0.28803292
0.28799046
0.28803318
0.33439884
0.53977599
0.54227939
0.54599984
0.54493492
0.54549041
0.10735262
0.10345348
0.11726219
0.10197772
0.086847123
0.4356976
0.43569308
0.43566096
0.43569236
0.43571113
0.4357825
0.27092955
0.43368106
0.43242397
0.43041353
0.24714738
0.42654548
0.43272183
0.43285057
0.43271004
0.4328506
0.54592526
0.54100914
0.54274131
0.1363522
0.52389782
0.52900327
0.22992787
0.36737897
0.31172862
0.34115816
0.30246148
0.24593403
0.42593042
0.43238771
0.43002904
0.08513402
0.33066383
0.34139702
0.3396927
0.11323551
0.42202232
0.43559536
0.43231944
0.1358077
0.13475151
0.13475081
0.11905314
0.11335513
0.11510262
0.33914313
0.22940407
0.14129116
0.12036533
0.089388524
0.28781682
0.28399256
0.18667493
0.28041469
0.34094693
0.34112769
0.22303128
0.3393398
0.36850388
0.36848841
0.36824118
0.36848338
0.36853388
0.3691164
0.54553594
0.47967449
0.48653847
0.085133835
0.33066378
0.34139702
0.33969269
0.11323499
0.42202101
0.43559402
0.43231841
0.22992796
0.36737912
0.31172875
0.34115816
0.30246151
0.24593411
0.42593061
0.4323879
0.43002924
0.546
0.54596024
0.54142728
0.54599864
0.54460757
0.54599675
0.54461107
0.54599636
0.54564653
0.54567346
0.54596662
0.53983108
0.46147385
0.54233024
0.54142729
0.546
0.54566419
0.54599985
0.54568315
0.54599864
0.54460757
0.54461107
0.54599675
0.53983107
0.53296719
0.14415056
0.53297221
0.54372819
0.54599807
0.54372558
0.54599978
0.54599893
0.54599992
0.54599809
0.54598875
0.54599931
0.546
0.546
0.546
0.546
0.546
0.54599991
0.546
0.5323024
0.14399577
0.53263498
0.37656295
0.12483696
0.12497375
0.541422
0.12503324
0.12503541
0.54253943
0.12502649
0.12499814
0.54218532
0.48570332
0.4859476
0.48596408
0.54223645
0.485952
0.48598725
0.54306187
0.48642308
0.36577027
0.52533539
0.36572566
0.52530614
0.36568828
0.36572538
0.54599995
0.54599992
0.54549955
0.54598098
0.54551782
0.12436905
0.12272187
0.10195568
0.10829629
0.103362
0.10858425
0.065940902
0.065560038
0.29117007
0.540145
0.50469737
0.51093303
0.54493515
0.50917078
0.53684098
0.54367757
0.51113126
0.51121858
0.53684156
0.51113646
0.54367772
0.51121856
0.10666275
0.10666607
0.54335625
0.50823106
0.50824793
0.50825161
0.54335713
0.50824817
0.10664453
0.10666196
0.10665992
0.10666299
0.54287053
0.31892804
0.50574058
0.50826476
0.54354996
0.50825834
0.065429761
0.092585576
0.54599457
0.54596106
0.098435448
0.1071246
0.54359023
0.090190178
0.091754284
0.1031831
0.10866557
0.53765334
0.43473162
0.4313374
0.53863488
0.24698425
0.42589302
0.43479184
0.5324699
0.43481811
0.53246957
0.43477326
0.43481628
0.12483701
0.1249738
0.54142201
0.1250333
0.12503546
0.54253944
0.12502654
0.12499819
0.54563184
0.54599984
0.54551287
0.54324429
0.3395755
0.54245165
0.54599995
0.54599992
0.103362
0.10858425
0.065940884
0.065560023
0.1243691
0.12272192
0.10195568
0.10829629
0.10665415
0.10665638
0.54335827
0.50823332
0.5082475
0.50825489
0.54335977
0.50824875
0.10663663
0.10665276
0.1066525
0.10665663
0.54287653
0.31892521
0.50574177
0.5082679
0.54355473
0.50826117
0.065428828
0.092583814
0.2911701
0.540145
0.50469744
0.51093311
0.54493515
0.50917085
0.53684098
0.54367757
0.51113134
0.51121865
0.53684156
0.51113653
0.54367773
0.51121863
0.48468463
0.46476533
0.41213352
0.033033678
0.51091494
0.54173261
0.50855095
0.26655583
0.52565844
0.50238442
0.53611531
0.46509074
0.46269749
0.11515501
0.52705639
0.45039368
0.022766175
0.063293721
0.50819754
0.54142375
0.50549448
0.10659865
0.10647831
0.1334844
0.53212953
0.49476428
0.033097075
0.077399435
0.46205639
0.36510879
0.3109419
0.52819719
0.24591399
0.4252711
0.5362414
0.4346911
0.43095284
0.51842478
0.30233439
0.46200342
0.46450405
0.53565402
0.4646059
0.54218532
0.48570339
0.48594768
0.48596415
0.54223646
0.48595208
0.48598733
0.54306187
0.48642316
0.53611529
0.46509073
0.46269747
0.11515469
0.52705627
0.4503936
0.022765897
0.06329259
0.54145665
0.50820075
0.50549526
0.13348453
0.53216812
0.49476432
0.10659215
0.10647307
0.48468471
0.46476533
0.41213358
0.033033678
0.51091502
0.54173261
0.50855103
0.26655585
0.52565844
0.50238449
0.546
0.546
0.546
0.54596999
0.5456191
0.54568808
0.54568855
0.54596006
0.54596992
0.54561841
0.53296927
0.14391365
0.53293436
0.54347611
0.54593694
0.54368732
0.5437283
0.54599658
0.54370792
0.14387543
0.53244203
0.53289883
0.54539005
0.54594078
0.54532708
0.33525602
0.54266498
0.54217399
0.54268993
0.33525592
0.54217367
0.54525875
0.54591286
0.54531684
0.11815083
0.52092489
0.51990998
0.30733211
0.54030699
0.5346738
0.11726189
0.29607187
0.51527201
0.11825206
0.52096769
0.52098163
0.11825198
0.5209639
0.52098164
0.52309103
0.46685124
0.52531719
0.546
0.546
0.546
0.546
0.52523528
0.45962476
0.46676246
0.52250037
0.33220807
0.50591983
0.33220504
0.50592301
0.5057635
0.32247095
0.30753626
0.53418516
0.32755779
0.50681569
0.54006908
0.31036625
0.53926971
0.54556479
0.54599975
0.5454954
0.5428089
0.33536035
0.54229148
0.54527438
0.54599867
0.54554238
0.118151
0.52092491
0.51990998
0.30733212
0.54030699
0.53467379
0.11726201
0.29607188
0.51527201
0.11825257
0.52096771
0.52098166
0.11825248
0.52096392
0.52098167
0.53228997
0.14364897
0.53229182
0.54279257
0.54561548
0.54288145
0.54289208
0.54564092
0.54288822
0.14364999
0.53230985
0.53229323
0.11282001
0.10826695
0.49728293
0.11701024
0.5209055
0.51565352
0.11257101
0.52354899
0.51656536
0.52545712
0.11394511
0.52120058
0.32446201
0.50673058
0.51895144
0.11277313
0.31024448
0.51539497
0.11282008
0.10826695
0.49728293
0.11701036
0.52090551
0.51565351
0.11257101
0.52354899
0.51656536
0.546
0.546
0.546
0.48917415
0.37442267
0.49035652
0.13898228
0.12503174
0.12501743
0.13901852
0.12503587
0.12503635
0.13903087
0.13903382
0.13892312
0.12444646
0.12488123
0.13879089
0.14297333
0.36849383
0.1429677
0.36849048
0.14296501
0.14296593
0.14285618
0.36842287
0.14293557
0.14296292
0.36846843
0.14295639
0.14298953
0.36861482
0.1430323
0.36880543
0.14329079
0.14312522
0.14147234
0.1414635
0.1414658
0.14146034
0.49095453
0.37792417
0.37632233
0.48957938
0.14164996
0.14193304
0.13790038
0.10355516
0.11745665
0.13564471
0.29204554
0.098574494
0.10703511
0.28320116
0.29567059
0.10321672
0.10836108
0.29519018
0.18895268
0.090229008
0.091643328
0.25759537
0.29887338
0.43569667
0.29887594
0.10666995
0.10666854
0.43569663
0.29888016
0.29887857
0.10667011
0.10666825
0.29883355
0.43568692
0.29886595
0.29888013
0.43569439
0.29887696
0.29887586
0.43576024
0.2989009
0.10666361
0.10667856
0.43587462
0.29890379
0.29896327
0.10622513
0.10344777
0.18481025
0.37797767
0.25931913
0.29755587
0.42185544
0.28957453
0.54592788
0.54599633
0.54594651
0.29965178
0.29968083
0.29957426
0.29961045
0.25966557
0.28994495
0.29965244
0.29962947
0.54599516
0.54599653
0.5459675
0.54599963
0.54582019
0.54595571
0.54572746
0.54590829
0.28287115
0.087929074
0.10202153
0.25513315
0.25761949
0.099713301
0.10354794
0.28485555
0.29520648
0.10323776
0.10863087
0.29532604
0.12183017
0.10867551
0.1262584
0.12622327
0.12674971
0.12674803
0.12622801
0.12619104
0.13898237
0.12503179
0.12501749
0.13901861
0.12503592
0.1250364
0.13903096
0.13903391
0.13892321
0.12444651
0.12488128
0.13879098
0.29567059
0.10321672
0.10836109
0.29519019
0.18895266
0.090229
0.091643322
0.25759536
0.13790047
0.10355522
0.1174567
0.1356448
0.29204554
0.098574497
0.10703511
0.28320117
0.2988632
0.43569455
0.29886407
0.10665908
0.10665806
0.43569365
0.29886609
0.29886532
0.10665934
0.10665806
0.29882346
0.43568373
0.29885396
0.29886599
0.43569049
0.29886355
0.29886733
0.43575982
0.29889371
0.1066589
0.10667308
0.43587427
0.29889815
0.29895698
0.10622128
0.10344495
0.18480839
0.37797619
0.25931644
0.29755098
0.42185408
0.28957068
0.14248988
0.36351467
0.14091894
0.12082416
0.34975775
0.13550131
0.090229418
0.077265415
0.12909169
0.3394433
0.12842517
0.11466462
0.33112362
0.12530607
0.032608555
0.2229178
0.084941467
0.29941339
0.12519616
0.11354629
0.12919181
0.34146827
0.12922405
0.12856035
0.3413775
0.12919385
0.1012657
0.089702259
0.072205491
0.29243815
0.19098213
0.28663561
0.3860912
0.25867835
0.1050323
0.10613667
0.2987442
0.43540574
0.29850411
0.29536858
0.43480351
0.2977973
0.29921636
0.29839146
0.19171873
0.25907443
0.12833414
0.33084375
0.12521558
0.087358797
0.09034186
0.30201425
0.087599916
0.11452343
0.13999512
0.13478322
0.12597521
0.12616172
0.11286198
0.087485453
0.12901846
0.34129259
0.12914843
0.34135193
0.12911181
0.1291776
0.085065601
0.29923172
0.1135441
0.12846207
0.33040146
0.12513376
0.14297343
0.36849399
0.1429678
0.36849064
0.14296511
0.14296603
0.14285628
0.36842303
0.14293568
0.14296302
0.36846859
0.14295649
0.14298963
0.36861498
0.1430324
0.36880558
0.14329089
0.14312532
0.03260849
0.2229175
0.08494136
0.29941323
0.12519614
0.11354623
0.12919181
0.34146827
0.12922405
0.12856035
0.34137749
0.12919385
0.072204897
0.29243691
0.1909802
0.10126262
0.08970004
0.38608974
0.2866315
0.2586751
0.10502861
0.10613235
0.29873612
0.43540491
0.29849773
0.29536392
0.43480271
0.29779203
0.14248998
0.36351482
0.14091904
0.12082424
0.34975789
0.13550141
0.090229423
0.077265415
0.12909169
0.3394433
0.12842517
0.11466463
0.33112363
0.12530608
0.47010023
0.46884219
0.546
0.546
0.546
0.54292932
0.54585065
0.54354766
0.37243089
0.46891263
0.54599766
0.5459999
0.54599766
0.37113399
0.54589103
0.54595612
0.54598895
0.54592408
0.54508819
0.54049911
0.53947511
0.54563403
0.5405255
0.54053616
0.54563418
0.54052686
0.54053615
0.46887453
0.54500464
0.54199083
0.54450204
0.54599698
0.54599984
0.54599654
0.54598895
0.54592408
0.54508819
0.54049911
0.53947511
0.54563403
0.5405255
0.54053616
0.54563418
0.54052686
0.54053615
0.5413576
0.5404885
0.53531439
0.37256562
0.37256037
0.54186332
0.54188265
0.54053491
0.54589103
0.54595612
0.5413576
0.5404885
0.53531439
0.023214179
0.055620113
0.070994934
0.077691479
0.23320988
0.090378254
0.2679977
0.097922097
0.28749108
0.097470128
0.28642514
0.098173483
0.28802005
0.098175609
0.28803182
0.098171706
0.28802582
0.09817268
0.28803322
0.023214204
0.055620168
0.070994992
0.097862641
0.28737525
0.097384984
0.2862345
0.086416373
0.24443643
0.09311467
0.27158158
0.54599964
0.54599381
0.54599744
0.54567498
0.54596323
0.54596659
0.54598451
0.54599894
0.52643238
0.47002027
0.52641387
0.46269481
0.47144378
0.47152036
0.54595387
0.46489768
0.44713648
0.546
0.54599992
0.54599874
0.54567683
0.54598142
0.54596793
0.49012888
0.53296629
0.49013203
0.49024652
0.53296813
0.49016671
0.54570363
0.54372777
0.54570358
0.54570321
0.54372721
0.54570351
0.37236285
0.37448692
0.37457137
0.46916331
0.47148765
0.47142114
0.54596479
0.54563183
0.54596479
0.54599659
0.54599986
0.54599699
0.36530295
0.36854763
0.35368886
0.37434314
0.37441557
0.37445004
0.37444957
0.49014481
0.53296982
0.49016191
0.53296044
0.49012456
0.49015939
0.54570357
0.54372725
0.54570307
0.5437222
0.54569866
0.54570208
0.46922848
0.52617446
0.5262505
0.47151566
0.4715397
0.54595696
0.54551163
0.54595116
0.54599982
0.54599549
0.54599626
0.49026984
0.37255712
0.49030658
0.49026508
0.37255722
0.49030533
0.546
0.546
0.546
0.54275443
0.52786891
0.51907621
0.540591
0.54502192
0.54062714
0.54593368
0.54502192
0.54593368
0.54597003
0.54275443
0.5459715
0.54599806
0.54597151
0.52948627
0.54069439
0.34839547
0.54148811
0.54433297
0.54403455
0.54168453
0.54558693
0.54256446
0.54558502
0.54069441
0.34839557
0.34592539
0.31000214
0.45341125
0.077867462
0.052045563
0.10682858
0.12325399
0.10696554
0.12324465
0.54415138
0.09276534
0.099542042
0.10703808
0.12282437
0.3063906
0.45244308
0.3459256
0.31000214
0.45341125
0.077867612
0.052045658
0.54168454
0.54558693
0.54256448
0.17830134
0.33864609
0.10660896
0.12278449
0.06376304
0.069890041
0.24725151
0.37004005
0.17830133
0.33864608
0.52956387
0.53809239
0.54392582
0.54492227
0.54236676
0.54470267
0.53804921
0.54121512
0.54503032
0.54062052
0.54061953
0.54542842
0.54074294
0.54193409
0.54086153
0.54183962
0.53993747
0.54077441
0.54489193
0.54110959
0.54156782
0.54162866
0.54500837
0.54161839
0.54597148
0.54599803
0.54597135
0.54503032
0.54542842
0.11825765
0.32562505
0.31087442
0.4536067
0.099239499
0.1870201
0.11825384
0.32562752
0.11825218
0.32561709
0.54318222
0.53929968
0.54318193
0.53929433
0.27219803
0.26231274
0.31104614
0.45347479
0.52956389
0.11825792
0.32562548
0.31087442
0.4536067
0.099239517
0.18702008
0.11825429
0.32562803
0.1182526
0.32561754
0.54489193
0.54110961
0.54156783
0.54162867
0.54500837
0.5416184
0.069795487
0.068141388
0.11819994
0.32558933
0.11465324
0.32675299
0.11684518
0.33866519
0.095794427
0.19145207
0.069795499
0.068141388
0.11820016
0.32558969
0.11465324
0.32675299
0.54570105
0.54363688
0.54568666
0.49036511
0.53273725
0.49031873
0.14189285
0.12301805
0.11896273
0.13986186
0.48276869
0.48416093
0.47452397
0.34924521
0.48592621
0.3694813
0.48605406
0.47452405
0.34924532
0.13327037
0.28404848
0.43185334
0.28247771
0.43125528
0.15954338
0.35877717
0.2796326
0.41012241
0.28424366
0.43281723
0.43284355
0.28433957
0.28422494
0.43281424
0.28433979
0.43284314
0.10684718
0.12326873
0.10692116
0.12326238
0.10363961
0.11333095
0.10701179
0.12196629
0.14189297
0.12301811
0.11896279
0.13986196
0.54599983
0.54599651
0.54599629
0.13326727
0.28404881
0.43185354
0.28247804
0.43125547
0.15954355
0.35877732
0.27963293
0.41012259
0.284244
0.43281742
0.43284374
0.2843399
0.28422528
0.43281443
0.28434012
0.43284334
0.18687035
0.35635527
0.28025772
0.40901776
0.28399523
0.4317599
0.28233602
0.43104892
0.10624936
0.12173361
0.089912166
0.099785476
0.18687051
0.35635541
0.28025805
0.40901794
0.28399556
0.4317601
0.28233636
0.43104912
0.53001892
0.53000052
0.54595558
0.54568774
0.54570435
0.54597069
0.54599865
0.54598202
0.54452485
0.54581361
0.54599857
0.54597999
0.54452519
0.54581587
0.54567319
0.54593375
0.54596463
0.54599769
0.54596395
0.54599546
0.52833982
0.53348103
0.52102575
0.53658708
0.53609698
0.54599787
0.52482281
0.51769082
0.52669661
0.52673866
0.469671
0.51989486
0.50102923
0.52021258
0.51745613
0.53001894
0.53000055
0.54567564
0.54596468
0.54596699
0.54599994
0.54599818
0.5459978
0.54599865
0.54598202
0.54452485
0.54581361
0.54452519
0.54581587
0.54599857
0.54597999
0.53658708
0.53609698
0.52833984
0.53348103
0.52102577
0.53476422
0.53487464
0.51944232
0.51976638
0.54597153
0.54599806
0.54597152
0.546
0.546
0.546
0.546
0.546
0.546
0.546
0.546
0.546
0.54597716
0.4897071
0.49006694
0.52999367
0.52999092
0.53003098
0.53003339
0.48436231
0.48437507
0.48437419
0.48437451
0.48434024
0.48427361
0.48589551
0.53028753
0.53048414
0.48593541
0.53052033
0.53051214
0.48595662
0.53053086
0.53052554
0.48595405
0.53052233
0.53052359
0.48605099
0.5305489
0.53059321
0.48618528
0.53096094
0.5307109
0.36573868
0.48176234
0.48173271
0.36572866
0.48171943
0.48172262
0.3657369
0.48164938
0.48172982
0.36572888
0.4817187
0.48171989
0.54570629
0.54570638
0.54597188
0.49094881
0.4909162
0.34174394
0.46830809
0.30618484
0.42391283
0.51918813
0.53887597
0.48515698
0.53205315
0.50824299
0.53567224
0.53567707
0.50824683
0.53567899
0.53567851
0.50824862
0.53568222
0.53567985
0.5082482
0.53567914
0.53567922
0.49217557
0.53336541
0.51996835
0.508309
0.53569232
0.5357172
0.5083911
0.53565895
0.53576153
0.52602302
0.52618404
0.54599739
0.53625182
0.53757382
0.54410828
0.53649793
0.53646426
0.54599915
0.54530136
0.53845907
0.54287739
0.52661701
0.5264553
0.53615813
0.49119861
0.52153437
0.52608036
0.48232338
0.52141984
0.47516037
0.53658092
0.53660186
0.4344742
0.50765592
0.43369694
0.50740396
0.5199876
0.51999714
0.29123435
0.35845509
0.4096429
0.50379549
0.4348093
0.50759078
0.43481627
0.5075546
0.51988863
0.51998221
0.43479951
0.50758321
0.43481082
0.50755415
0.5299937
0.52999094
0.530031
0.53003341
0.54595154
0.545565
0.54595701
0.53108496
0.5432439
0.53108156
0.34174412
0.4683081
0.50824379
0.53567666
0.53567914
0.50824647
0.53568007
0.53567964
0.50825144
0.53568724
0.5356843
0.50825011
0.535681
0.53568321
0.49217532
0.53336745
0.51996915
0.50831223
0.535697
0.53572186
0.50839463
0.53566184
0.53576648
0.30618485
0.42391288
0.51918813
0.53887597
0.48515704
0.53205317
0.47996068
0.52925601
0.52465695
0.46261285
0.51934512
0.51746085
0.4622991
0.4514317
0.50611427
0.24692669
0.40516412
0.47098393
0.52873196
0.47744716
0.52667534
0.46515405
0.51965006
0.51968032
0.46494257
0.51728312
0.51941088
0.4076027
0.50447953
0.4566656
0.50809392
0.53565888
0.53559306
0.50767212
0.53340428
0.53525328
0.4543789
0.52286971
0.48055891
0.48792494
0.48077915
0.45095796
0.5161079
0.50462653
0.36185656
0.48103052
0.47758756
0.41136415
0.34844686
0.46152222
0.26675015
0.35610948
0.40855767
0.50141282
0.46473474
0.48382801
0.43438105
0.50763439
0.43349877
0.50674033
0.33810741
0.40699379
0.45552198
0.44982177
0.51568436
0.50264459
0.46496508
0.51889964
0.51948083
0.46500927
0.51882784
0.51948949
0.48589558
0.53028755
0.53048416
0.48593548
0.53052035
0.53051217
0.48595669
0.53053089
0.53052556
0.48595413
0.53052235
0.53052361
0.48605107
0.53054893
0.53059323
0.48618536
0.53096096
0.53071093
0.46515405
0.51965006
0.51968032
0.46494257
0.5172831
0.51941088
0.40760247
0.50447944
0.4566653
0.50809716
0.53566396
0.53559944
0.5076742
0.53340595
0.53525829
0.45437864
0.52287128
0.48056105
0.47996076
0.52925603
0.52465697
0.46261285
0.51934512
0.51746085
0.46229917
0.45143172
0.50611429
0.24692669
0.40516416
0.47098393
0.52873196
0.47744722
0.52667536
0.49081346
0.49087487
0.54597186
0.54570595
0.54570589
0.54597185
0.49089904
0.49089872
0.54368238
0.54568551
0.54561534
0.54599792
0.54597107
0.54597097
0.49003658
0.53285
0.48985402
0.11825831
0.32523261
0.45998627
0.52083612
0.45922449
0.52068203
0.31024033
0.44846537
0.51936841
0.54019523
0.51377563
0.53933795
0.11301993
0.32258081
0.2620513
0.432019
0.1182528
0.32562547
0.46000745
0.5209791
0.4600144
0.52098131
0.11825235
0.32562536
0.45999957
0.52097837
0.46001437
0.52098123
0.5459477
0.54594148
0.5459179
0.54582411
0.54572681
0.52646044
0.52664276
0.49119638
0.52153246
0.53615701
0.52607946
0.29630467
0.44868035
0.51911394
0.54031535
0.31094953
0.45268549
0.54021999
0.51829582
0.54549054
0.5459415
0.54594837
0.52887444
0.54245677
0.52714506
0.54598466
0.54599435
0.54596622
0.11825853
0.32523281
0.45998638
0.52083613
0.45922452
0.52068204
0.31024033
0.44846537
0.51936841
0.54019523
0.51377563
0.53933795
0.11301999
0.32258094
0.26205129
0.43201899
0.11825329
0.32562614
0.46000759
0.52097912
0.46001459
0.52098134
0.11825282
0.32562601
0.45999969
0.52097839
0.46001455
0.52098126
0.099599837
0.31048588
0.095674562
0.30546036
0.11800732
0.32215783
0.45995423
0.52071549
0.45514218
0.51990334
0.11385109
0.3176841
0.46447883
0.52258014
0.45582611
0.52140148
0.54566642
0.54566725
0.47068989
0.52357959
0.11468628
0.32120783
0.52266798
0.46017274
0.10846786
0.3180941
0.099599877
0.31048596
0.095674564
0.30546037
0.11800748
0.32215796
0.45995431
0.52071549
0.45514219
0.51990334
0.1138511
0.31768411
0.46447883
0.52258014
0.45582612
0.52140148
0.54598003
0.5459837
0.54596647
0.54599408
0.53847588
0.54289031
0.546
0.54599997
0.546
0.54599999
0.54599915
0.54599996
0.47602576
0.53111936
0.53112401
0.53109653
0.52907707
0.54310338
0.53059332
0.54594885
0.54552814
0.54594885
0.54552814
0.33218689
0.4517461
0.33217489
0.45174849
0.3317052
0.4519456
0.54310338
0.53059335
0.33159097
0.45191546
0.53057229
0.47660797
0.47660807
0.52714754
0.53957608
0.53929218
0.53112656
0.53112554
0.53103814
0.54597185
0.47526571
0.51041223
0.53742369
0.54570395
0.54366198
0.50985597
0.53678057
0.5111999
0.53742944
0.51121481
0.53741833
0.51120103
0.53743124
0.51121492
0.53741831
0.54426191
0.53968679
0.53965237
0.51803871
0.53152592
0.53968851
0.53964114
0.47526571
0.5104123
0.53742371
0.54570396
0.54366199
0.50985604
0.53678059
0.51119997
0.53742946
0.51121488
0.53741835
0.5112011
0.53743126
0.51121499
0.53741833
0.51035507
0.53741607
0.54515212
0.54144747
0.50967879
0.53559412
0.48371147
0.52591402
0.51035515
0.53741609
0.54515212
0.54144747
0.50967886
0.53559414
0.45521425
0.49505565
0.3322013
0.45163988
0.33219269
0.4516387
0.31076381
0.4536203
0.51395705
0.51390023
0.33061184
0.45406018
0.45521426
0.49505564
0.43866092
0.43844154
0.32998693
0.4498504
0.27383258
0.43670554
0.45609637
0.49518442
0.43866092
0.43844155
0.54586318
0.54498455
0.54042023
0.54503481
0.54414558
0.54026197
0.54053429
0.54503517
0.54053585
0.54503454
0.54053448
0.54503589
0.54053586
0.54503453
0.54579838
0.54510924
0.54504866
0.54536344
0.54586318
0.54498455
0.54042023
0.54503481
0.54414558
0.54026197
0.54053429
0.54503517
0.54053586
0.54503454
0.54053448
0.54503589
0.54053586
0.54503453
0.54522186
0.54102851
0.54032492
0.54502674
0.54007137
0.53954705
0.54527617
0.54145338
0.54121096
0.54472536
0.54522186
0.54102851
0.54032492
0.54502674
0.54007137
0.53954705
0.5459994
0.54426053
0.54529804
0.54595337
0.54595339
0.5459952
0.54599521
0.5459995
0.54599263
0.54523891
0.34522592
0.35148959
0.54588687
0.54588687
0.1314423
0.10368114
0.12233483
0.13254303
0.54569345
0.30413873
0.33581444
0.12231059
0.13113735
0.54356971
0.53471116
0.33574727
0.34943014
0.54523891
0.54575906
0.54565113
0.54363802
0.54599963
0.546
0.5459999
0.54599996
0.54599998
0.546
0.54598723
0.13485663
0.15167425
0.13452012
0.14420879
0.54307555
0.54303396
0.54158323
0.54425692
0.54303729
0.13077023
0.1291739
0.54525971
0.54229778
0.52573575
0.54170155
0.13077033
0.12917472
0.1287941
0.3493194
0.071451079
0.11869898
0.071550382
0.11873355
0.54599905
0.33098137
0.54599881
0.54599987
0.54576826
0.54573056
0.5428507
0.15605473
0.12879426
0.13436374
0.14416759
0.54525971
0.54229778
0.54599992
0.546
0.546
0.54599812
0.54234664
0.54371861
0.545572
0.47761053
0.48430464
0.12472526
0.13755658
0.13758059
0.12491469
0.54523437
0.091076245
0.14419738
0.13831053
0.12292498
0.13001747
0.13016464
0.54558502
0.54593919
0.54085383
0.54190941
0.54254915
0.54373494
0.54599257
0.54599808
0.54234131
0.13001741
0.13016559
0.54593919
0.54085384
0.54190942
0.54254916
0.13163557
0.12084585
0.13578374
0.12195355
0.53977892
0.33336305
0.54226152
0.33100621
0.54599661
0.54594302
0.11482583
0.12245546
0.54599972
0.54599949
0.54599991
0.546
0.54225859
0.28909998
0.33633466
0.5394664
0.12426094
0.1374755
0.12802714
0.10347096
0.545572
0.47761062
0.48430471
0.54597104
0.54575298
0.14426816
0.14426249
0.546
0.546
0.546
0.52891363
0.13606666
0.1447097
0.53295922
0.36388066
0.36418505
0.36416544
0.36419069
0.36524626
0.36308805
0.36410796
0.36308818
0.12491818
0.13757993
0.13757956
0.12491854
0.12491327
0.13758207
0.13781963
0.1243443
0.36455377
0.54314879
0.36227442
0.52317857
0.13041059
0.52812703
0.36982589
0.36955485
0.53309846
0.1472023
0.15221713
0.14286344
0.14630439
0.52893325
0.5231786
0.13041074
0.52812708
0.36323819
0.33636921
0.43658959
0.3826522
0.28584378
0.4375986
0.43376519
0.0989195
0.10457407
0.42164544
0.13145914
0.12100859
0.13468743
0.12140642
0.54493558
0.54599984
0.54549061
0.098776677
0.10517788
0.43722638
0.43724207
0.43657707
0.43709684
0.27069212
0.43411921
0.4365864
0.43635555
0.54599566
0.54599845
0.54529079
0.546
0.54528753
0.54599477
0.54456842
0.54487212
0.10894539
0.074789057
0.43244537
0.28538493
0.28015172
0.43315736
0.43584515
0.43623678
0.33457568
0.20592698
0.33644509
0.33647284
0.33720845
0.33719094
0.33678947
0.33645644
0.3638808
0.36418519
0.36416558
0.36419083
0.36524646
0.3630882
0.3641081
0.36308833
0.4375986
0.4337652
0.09891816
0.10457411
0.42164545
0.36323833
0.33636934
0.43658959
0.38265225
0.28584389
0.43714642
0.4331391
0.085280708
0.11347623
0.42252113
0.33413143
0.33673323
0.3265847
0.090456929
0.3698261
0.36955501
0.54599986
0.54599998
0.54599706
0.54592297
0.48552709
0.4857262
0.54590939
0.54355381
0.54374554
0.54599806
0.48498636
0.5103205
0.45003588
0.51108844
0.50697249
0.54599852
0.54598117
0.54578774
0.54597534
0.54599989
0.45086849
0.32121511
0.54230749
0.33521752
0.54232991
0.50805713
0.54361789
0.5347208
0.53477339
0.50805452
0.54208455
0.31477036
0.50600834
0.33911817
0.33953519
0.54218649
0.54233829
0.54242473
0.32701208
0.50657038
0.45963297
0.33802199
0.54115512
0.28361924
0.46127024
0.54024974
0.54591307
0.51745842
0.54551347
0.46125261
0.48552716
0.48572627
0.51108844
0.50697249
0.48498643
0.5103205
0.45003595
0.54595413
0.54566555
0.54372645
0.50802902
0.54416925
0.54394189
0.54563124
0.53531245
0.50550879
0.45957598
0.54532974
0.54247569
0.4622592
0.5459999
0.54599999
0.546
0.546
0.54599999
0.546
0.546
0.546
0.545998
0.54530086
0.54577522
0.54394967
0.5352292
0.54395288
0.54370834
0.37689448
0.14851788
0.13614045
0.53524399
0.14422584
0.53293198
0.48571431
0.48572884
0.48568165
0.48471703
0.36137527
0.54308509
0.36143867
0.54308251
0.36143637
0.3614368
0.36143608
0.5431155
0.3616714
0.36585967
0.52983757
0.36748488
0.54374759
0.54599837
0.54374699
0.54599809
0.5331254
0.1456503
0.53310962
0.14588729
0.1029776
0.5272162
0.12137851
0.49294876
0.1033022
0.024544101
0.023385181
0.54598643
0.54599973
0.33382232
0.54290534
0.54228575
0.54599983
0.54585945
0.54596423
0.54596032
0.54548981
0.54466272
0.5442997
0.50909259
0.50807976
0.54523737
0.50909445