/*--------------------------------*- C++ -*----------------------------------*\
  =========                 |
  \\      /  F ield         | OpenFOAM: The Open Source CFD Toolbox
   \\    /   O peration     | Website:  https://openfoam.org
    \\  /    A nd           | Version:  8
     \\/     M anipulation  |
\*---------------------------------------------------------------------------*/
/*   Windows 32 and 64 bit porting by blueCAPE: http://www.bluecape.com.pt   *\
|  Based on Windows porting (2.0.x v4) by Symscape: http://www.symscape.com   |
\*---------------------------------------------------------------------------*/
FoamFile
{
    version     2.0;
    format      ascii;
    class       volScalarField;
    location    "0";
    object      thicknessFraction;
}
// * * * * * * * * * * * * * * * * * * * * * * * * * * * * * * * * * * * * * //

dimensions      [0 0 0 0 0 0 0];

internalField   uniform 0;

boundaryField
{
    left
    {
        type            fixedValue;
        value           uniform 0;
    }
    right
    {
        type            fixedValue;
        value           uniform 0;
    }
    back
    {
        type            fixedValue;
        value           uniform 0;
    }
    front
    {
        type            fixedValue;
        value           uniform 0;
    }
    bottom
    {
        type            fixedValue;
        value           uniform 0;
    }
    top
    {
        type            fixedValue;
        value           uniform 0;
    }
    vegetation
    {
        type            fixedValue;
        value           uniform 0;
    }
    tower
    {
        type            fixedValue;
        value           nonuniform List<scalar> 
5258
(
0
0
0
0
0
0
0
0
0
0
0
0
0
0
0
0
0
0
0
0
0
0
0
0
0
0
0
0.99156304
0.9978879
0.9978879
0.98977779
0.99437035
0.99327735
0.99156305
0.99437035
0.9897778
0.52686203
0.99998648
0.99999644
0.55547
0.99999477
0.99999907
0.99994612
0.99999992
1
0.99999907
0.99999979
0.99999992
0.52584357
0.99998646
0.99940039
0.55544153
0.9916427
0.99176865
0.37959795
0.57232822
0.49454704
0.49464087
0.9983339
0.99215955
0.99312656
0.99994591
0.96223971
0.96165619
0.99338017
0.64193437
0.63885793
0.99863453
0.49872541
0.99979868
0.99835051
0.49198609
0.37959938
0.57222191
0.49455293
0.49452048
0.9983339
0.9999998
0.99999834
0.99999349
0.9999219
0.55688515
0.71479867
0.99999826
0.39767247
0.39786603
0.17659711
0.57164065
0.56926034
0.98691562
0.99676877
0.98340028
0.99579732
0.98341264
0.99580286
0.99513796
0.99516155
0.71470977
0.99517252
0.17723524
0.4513492
0.45131616
0.25197096
0.45097623
0.99999695
0.39702185
0.99528403
0.24069584
0.39792026
0.97587315
0.56816129
0.97531697
0.97531146
0.99164272
0.99176867
0.99999981
0.5568882
0.71503295
0.99999826
0.9999998
0.99999834
0.99999349
0.39786603
0.17659704
0.39767247
0.99514717
0.99517145
0.71470674
0.99518656
0.56926034
0.98691563
0.99676878
0.98340029
0.99579733
0.98341265
0.99580287
0.49873406
0.99979868
0.99835051
0.49198765
0.9826597
0.98680107
0.99664064
0.22699227
0.98464875
0.49704827
0.99489593
0.52596986
0.45315537
0.45317153
0.45097648
0.091391902
0.95788572
0.32700746
0.97582048
0.63773718
0.98198774
0.99215956
0.99312657
0.99994591
0.98464875
0.4970445
0.99494022
0.52608454
0.9826597
0.98680107
0.99664065
0.22699227
0.99825901
0.64093282
0.9967881
0.99825163
0.99874406
0.99993145
0.99262839
0.68409483
0.68420171
0.99104655
0.49884798
0.99630232
0.99821993
0.49845464
0.52703288
0.99914334
0.99999643
0.52641473
0.99825164
0.9999911
0.99880906
0.99990602
0.65037333
0.65032243
0.99934927
0.43316858
0.56953886
0.2511518
0.99957368
0.4331669
0.99933945
0.99934475
0.43314741
0.99498926
0.60835099
0.60833462
0.99498114
0.99746267
0.34321167
0.60820281
0.56950756
0.99999974
0.65037943
0.65058304
0.99950916
0.9999911
0.99880906
0.4331698
0.56953886
0.25115176
0.99957368
0.43316834
0.99933945
0.99934475
0.4331487
0.49885721
0.99630232
0.99821993
0.49845949
0.52598286
0.99883226
0.99935154
0.52613991
0.09131148
0.99940178
0.43310841
0.21394578
0.22714596
0.6081788
0.99729409
0.12493019
0.99874406
0.99993145
0.091311482
0.99940178
0.43310944
0.21394578
0.99999643
0.99330445
0.99581169
0.52984663
0.96869202
0.97609819
0.99999797
1
1
0.99999987
1
1
0.99999984
1
1
0.99999999
1
1
0.99999035
0.99329729
0.99572382
0.52944613
0.96867415
0.97588793
0.44491946
0.45608728
0.44711757
0.44714532
0.67491525
0.67488691
0.6744341
0.67487769
0.67497019
0.67603707
0.99915007
0.87852454
0.89109596
0.51819663
0.51816858
0.51825115
0.51816535
0.65351993
0.99090619
0.99277947
0.99880784
0.99841272
0.9985847
0.51842507
0.52148973
0.99379044
0.67607243
0.67444792
0.99986311
0.99085919
0.99403166
0.49945448
0.95951962
0.96887026
0.44488484
0.45602919
0.4470554
0.447057
0.61234792
0.98859595
0.99313893
0.99999923
0.99804783
0.99906295
0.37354474
0.31812121
0.39323302
0.37895047
0.42953979
0.79198493
0.7883028
0.45265071
0.78121847
0.79253047
0.79276626
0.79250887
0.79276631
0.79798335
0.79797948
0.79791795
0.79797884
0.7980071
0.79813756
0.49621183
0.79428957
0.45155183
0.45154377
0.43163215
0.44026082
0.20331723
0.31794212
0.3935389
0.39715651
0.29164804
0.51241807
0.5272337
0.52037813
0.52741948
0.52753282
0.52745506
0.52753329
0.6124521
0.98860072
0.99318569
0.9999997
0.9980493
0.99906668
0.39323303
0.37895047
0.42953184
0.37354478
0.31812133
0.79798096
0.79797267
0.79791385
0.79797136
0.79800573
0.79813645
0.49620797
0.79428765
0.79198529
0.78830317
0.45265088
0.78121882
0.79253083
0.79276662
0.79250923
0.79276667
0.99986311
0.99085924
0.9940317
0.4994586
0.95951982
0.96887046
0.42111331
0.67285525
0.57093154
0.6248318
0.55395875
0.45042862
0.78009234
0.79191888
0.78759897
0.31184623
0.60561141
0.62526927
0.62214781
0.41478208
0.77293466
0.7977937
0.79179384
0.49746409
0.49359527
0.4935927
0.43609209
0.41522027
0.42162133
0.62114127
0.42015398
0.51755005
0.44089866
0.32743049
0.52713703
0.5201329
0.34189547
0.51358001
0.62444493
0.62477599
0.40848219
0.62150147
0.67491554
0.6748872
0.67443439
0.67487799
0.67497048
0.67603737
0.99915007
0.87852471
0.8910961
0.31184555
0.60561131
0.62526927
0.62214778
0.41478018
0.77293226
0.79779124
0.79179197
0.42111349
0.67285554
0.57093177
0.6248318
0.55395882
0.45042877
0.78009269
0.79191924
0.78759933
0.99999999
0.99992717
0.99162506
0.99999752
0.99744977
0.99999406
0.99745617
0.99999334
0.99935262
0.99940195
0.99993886
0.9887016
0.8451902
0.99327883
0.99162508
0.99999999
0.99938496
0.99999972
0.99941969
0.99999752
0.99744977
0.99745617
0.99999406
0.9887016
0.97613038
0.52802401
0.97613958
0.99583917
0.99999646
0.99583439
0.9999996
0.99999804
0.99999986
0.9999965
0.9999794
0.99999874
1
1
0.99999999
1
1
0.99999983
1
0.97491281
0.52745704
0.97552195
0.68967573
0.45727823
0.45777929
0.99161539
0.45799723
0.45800515
0.99366196
0.45797249
0.45786864
0.9930134
0.88956651
0.89001392
0.8900441
0.99310706
0.89002198
0.89008655
0.99461881
0.89088477
0.66990891
0.96215272
0.66982721
0.96209916
0.66975875
0.6698267
0.99999992
0.99999986
0.99908342
0.99996516
0.99911688
0.45556429
0.44953065
0.37346403
0.3966897
0.37861538
0.3977445
0.24154176
0.24014666
0.53327851
0.98927655
0.92435415
0.93577479
0.99804973
0.93254721
0.98322524
0.99574646
0.93613785
0.93629777
0.9832263
0.93614736
0.99574675
0.93629772
0.39070603
0.39071822
0.99515796
0.93082612
0.93085701
0.93086376
0.99515957
0.93085745
0.39063931
0.39070315
0.39069569
0.39070691
0.99426838
0.58411728
0.9262648
0.93088784
0.99551276
0.93087607
0.23966945
0.3391413
0.99999006
0.99992868
0.36056941
0.3923978
0.99558651
0.33036695
0.33609628
0.37796008
0.39804237
0.98471308
0.79621175
0.78999525
0.98651077
0.45235211
0.78002384
0.79632205
0.9752196
0.79637016
0.97521899
0.79628802
0.79636682
0.45727843
0.45777948
0.9916154
0.45799742
0.45800535
0.99366197
0.45797268
0.45786883
0.99932571
0.99999971
0.99910782
0.99495291
0.62193316
0.99350119
0.99999992
0.99999986
0.37861538
0.3977445
0.2415417
0.2401466
0.45556448
0.44953085
0.37346403
0.39668969
0.39067453
0.39068273
0.99516167
0.93083025
0.93085622
0.93086977
0.99516441
0.93085851
0.39061036
0.39066945
0.3906685
0.39068364
0.99427936
0.5841121
0.92626697
0.93089359
0.99552148
0.93088126
0.23966604
0.33913485
0.53327856
0.98927655
0.92435429
0.93577492
0.99804973
0.93254734
0.98322524
0.99574647
0.93613798
0.9362979
0.9832263
0.93614749
0.99574676
0.93629785
0.88770079
0.85121856
0.7548233
0.12100248
0.93574166
0.99218428
0.931412
0.48819749
0.96274439
0.92011798
0.98189618
0.85181453
0.8474313
0.42181323
0.96530475
0.82489685
0.16678517
0.23184513
0.93076472
0.99161859
0.92581407
0.39047123
0.39003046
0.48895386
0.97459621
0.90616168
0.12123471
0.28351442
0.84625713
0.66869741
0.56949066
0.96739412
0.45039193
0.77888479
0.9821271
0.79613755
0.78929091
0.94949594
0.55372598
0.84616011
0.85074002
0.98105132
0.85092656
0.99301341
0.88956665
0.89001406
0.89004423
0.99310707
0.89002212
0.89008668
0.99461881
0.89088491
0.98189613
0.85181453
0.84743127
0.42181206
0.96530453
0.82489671
0.16678313
0.23184099
0.99167885
0.93077061
0.9258155
0.48895434
0.97466689
0.90616176
0.39044743
0.39001125
0.88770093
0.85121855
0.7548234
0.12100248
0.93574179
0.99218428
0.93141214
0.48819753
0.96274439
0.92011812
1
1
1
0.99994503
0.99930238
0.99942871
0.99942957
0.99992685
0.99994492
0.99930111
0.97613419
0.52715624
0.97607026
0.9953775
0.99988451
0.99576432
0.99583938
0.99999374
0.99580204
0.52701622
0.97516856
0.97600518
0.99888288
0.99989154
0.99876754
0.61402202
0.9938919
0.99299266
0.9939376
0.61402184
0.99299207
0.9986424
0.99984041
0.99874879
0.43278691
0.95407489
0.95221608
0.56287933
0.98957325
0.97925604
0.42953072
0.54225618
0.94372164
0.43315773
0.95415327
0.95417881
0.43315742
0.95414634
0.95417882
0.95804218
0.8550389
0.96211939
1
0.99999999
1
1
0.96196938
0.84180358
0.85487629
0.95696039
0.60843968
0.92659309
0.60843413
0.92659892
0.92630677
0.59060613
0.56325322
0.9783611
0.5999227
0.92823386
0.9891375
0.56843635
0.98767346
0.99920291
0.99999954
0.99907582
0.99415549
0.6142131
0.99320784
0.99867102
0.99999756
0.99916188
0.43278753
0.95407492
0.95221608
0.56287934
0.98957325
0.97925603
0.42953116
0.54225618
0.94372163
0.43315959
0.95415331
0.95417887
0.43315926
0.95414637
0.95417888
0.97489005
0.52618672
0.97489344
0.99412558
0.99929576
0.99428837
0.99430785
0.99934235
0.99430077
0.52619044
0.97492647
0.97489603
0.4132601
0.19829111
0.91077461
0.42860894
0.95403938
0.94442036
0.206174
0.95888094
0.9460904
0.96237567
0.20869068
0.95457983
0.59425277
0.92807798
0.95046052
0.2065442
0.56821334
0.94394684
0.41326038
0.19829112
0.9107746
0.42860936
0.9540394
0.94442035
0.20617401
0.95888094
0.9460904
1
1
1
0.89592335
0.68575581
0.89808886
0.50909261
0.4579917
0.45793932
0.50922536
0.45800684
0.45800862
0.50927058
0.50928139
0.5088759
0.45584784
0.45744041
0.50839153
0.52371182
0.67489712
0.52369122
0.67489099
0.52368135
0.52368471
0.52328271
0.67476716
0.52357352
0.5236737
0.6748506
0.52364977
0.52377116
0.67511872
0.52392783
0.67546781
0.52487467
0.52426819
0.51821372
0.51818133
0.51818975
0.51816976
0.89918413
0.69216881
0.68923504
0.89666553
0.51886434
0.51990124
0.5051296
0.37932294
0.43024414
0.49686706
0.53488194
0.36107873
0.39206999
0.51868345
0.54152122
0.37808322
0.39692705
0.54064136
0.34606717
0.33050919
0.33568985
0.4717864
0.54738715
0.79797924
0.54739183
0.39073241
0.39072726
0.79797918
0.54739956
0.54739666
0.39073299
0.39072619
0.5473142
0.79796139
0.54737353
0.5473995
0.79797507
0.54739371
0.54739168
0.79809568
0.54743755
0.39070921
0.39076395
0.79830517
0.54744283
0.54755177
0.38910304
0.37892957
0.33848031
0.69226679
0.47494346
0.54497412
0.77262901
0.53035629
0.99986791
0.99999328
0.99990203
0.54881279
0.54886598
0.5486708
0.54873708
0.47557797
0.5310347
0.54881399
0.54877192
0.99999113
0.99999364
0.99994048
0.99999932
0.99967068
0.99991889
0.99950085
0.99983204
0.51807903
0.32208452
0.37370523
0.46727684
0.47183056
0.36525019
0.3792965
0.52171347
0.54067122
0.37816029
0.39791529
0.54089019
0.44626434
0.39807881
0.46248498
0.46235632
0.46428466
0.46427848
0.46237368
0.46223823
0.50909294
0.4579919
0.45793951
0.50922569
0.45800703
0.45800881
0.50927091
0.50928172
0.50887623
0.45584803
0.4574406
0.50839186
0.54152123
0.37808323
0.39692706
0.54064137
0.34606713
0.33050916
0.33568983
0.47178638
0.50512993
0.37932314
0.43024434
0.49686739
0.53488194
0.36107874
0.39206999
0.51868346
0.5473685
0.79797537
0.54737008
0.39069261
0.39068885
0.79797372
0.5473738
0.54737238
0.39069355
0.39068885
0.54729572
0.79795554
0.54735157
0.54737361
0.79796794
0.54736913
0.54737606
0.79809491
0.54742437
0.39069193
0.3907439
0.79830453
0.5474325
0.54754026
0.38908893
0.37891924
0.33847691
0.69226408
0.47493854
0.54496516
0.77262652
0.53034922
0.52194094
0.66577778
0.51618658
0.44257933
0.64058195
0.4963418
0.33051069
0.2830235
0.47286334
0.62169103
0.47042186
0.42001692
0.60645352
0.4589966
0.23889051
0.40827435
0.3111409
0.54837617
0.45859398
0.41592049
0.47323008
0.62539977
0.47334815
0.47091704
0.62523351
0.47323756
0.37093661
0.3285797
0.26448898
0.53560101
0.34978412
0.52497365
0.70712673
0.47376987
0.3847337
0.388779
0.54715055
0.79744641
0.54671083
0.54096809
0.79634342
0.5454163
0.54801532
0.5465045
0.3511332
0.4744953
0.47008843
0.60594094
0.45866512
0.3199956
0.33092256
0.55313964
0.32087881
0.41949976
0.51280264
0.49371144
0.46144767
0.46213083
0.41341383
0.32045953
0.47259507
0.62507801
0.47307119
0.62518668
0.47293703
0.47317802
0.31159561
0.54804345
0.41591245
0.47055703
0.60513088
0.45836542
0.52371219
0.67489742
0.52369159
0.67489128
0.52368172
0.52368509
0.52328308
0.67476745
0.5235739
0.52367408
0.67485089
0.52365014
0.52377154
0.67511901
0.52392821
0.6754681
0.52487505
0.52426857
0.23889004
0.40827381
0.31114051
0.54837589
0.4585939
0.41592027
0.47323008
0.62539977
0.47334815
0.47091702
0.62523351
0.47323755
0.2644868
0.53559874
0.34978058
0.37092536
0.32857158
0.70712407
0.52496611
0.47376392
0.38472019
0.38876318
0.54713575
0.7974449
0.54669914
0.54095956
0.79634197
0.54540664
0.52194131
0.66577807
0.51618694
0.44257964
0.64058222
0.49634214
0.33051071
0.2830235
0.47286334
0.62169103
0.47042185
0.42001698
0.60645353
0.45899661
0.86098943
0.85868533
1
1
1
0.99437604
0.99972646
0.99550854
0.68210785
0.85881435
0.99999571
0.99999981
0.99999571
0.67973258
0.99980042
0.99991963
0.99997977
0.99986095
0.99833003
0.98992511
0.98804965
0.99932972
0.98997343
0.98999296
0.99933001
0.98997593
0.98999295
0.85874456
0.998177
0.9926572
0.99725649
0.99999447
0.9999997
0.99999367
0.99997977
0.99986095
0.99833003
0.98992511
0.98804964
0.99932972
0.98997344
0.98999297
0.99933001
0.98997594
0.98999295
0.99149744
0.98990568
0.98042928
0.68235462
0.68234501
0.99242366
0.99245906
0.98999068
0.99980042
0.99991963
0.99149744
0.98990568
0.98042928
0.17006724
0.20373668
0.2600547
0.28458417
0.42712432
0.33105587
0.49083828
0.358689
0.52654044
0.35703344
0.52458817
0.35960983
0.52750925
0.35961762
0.5275308
0.35960332
0.52751981
0.35960689
0.52753338
0.17006743
0.20373688
0.26005492
0.35847121
0.52632829
0.35672155
0.52423901
0.31654349
0.44768576
0.34107938
0.49740217
0.99999934
0.99998866
0.99999531
0.99940473
0.99993266
0.9999388
0.99997162
0.99999805
0.96416186
0.86084298
0.96412798
0.84742639
0.86345015
0.86359041
0.99991552
0.85146095
0.81893129
1
0.99999985
0.99999768
0.99940812
0.99996596
0.99994127
0.89767194
0.97612874
0.89767771
0.8978874
0.97613211
0.89774122
0.9994572
0.99583841
0.99945711
0.99945644
0.99583738
0.99945698
0.68198325
0.68587348
0.68602814
0.85927346
0.86353049
0.86340868
0.99993552
0.9993257
0.99993552
0.99999376
0.99999974
0.99999448
0.66905302
0.67499565
0.6477818
0.68561014
0.6857428
0.68580593
0.68580507
0.89770112
0.9761352
0.89773243
0.97611803
0.89766404
0.89772782
0.99945708
0.99583746
0.99945618
0.9958282
0.9994481
0.99945435
0.85939281
0.96368949
0.96382875
0.8635818
0.86362582
0.99992116
0.99910556
0.99991056
0.99999968
0.99999175
0.99999315
0.8979301
0.68233905
0.89799741
0.89792138
0.68233924
0.89799512
1
0.99999999
1
0.99405573
0.96679287
0.95068904
0.9900934
0.99820864
0.99015959
0.99987853
0.99820864
0.99987853
0.99994511
0.99405574
0.99994781
0.99999645
0.99994782
0.96975506
0.99028276
0.63808694
0.99173646
0.99694684
0.99640027
0.99209621
0.99924346
0.9937078
0.99923997
0.9902828
0.63808712
0.63356299
0.56776949
0.83042353
0.2852288
0.19064309
0.39131349
0.45147983
0.39181516
0.45144561
0.99661425
0.33979978
0.36462287
0.39208089
0.44990614
0.56115494
0.82865032
0.63356336
0.56776949
0.83042353
0.28522935
0.19064344
0.99209623
0.99924346
0.99370783
0.32655922
0.62023093
0.390509
0.44976005
0.23356425
0.25600748
0.45284159
0.67772903
0.32655922
0.62023092
0.96989719
0.9855172
0.99620114
0.99802614
0.99334572
0.99762393
0.98543812
0.99123649
0.99822402
0.99014748
0.99014565
0.99895314
0.99037168
0.99255327
0.99058888
0.99238026
0.98889647
0.99042933
0.99797056
0.9910432
0.99188245
0.99199389
0.99818383
0.99197507
0.99994777
0.9999964
0.99994754
0.99822402
0.99895314
0.4331782
0.59638288
0.56936707
0.83078151
0.36351465
0.34252766
0.43316427
0.59638739
0.43315819
0.59636829
0.99483923
0.98772834
0.99483869
0.98771854
0.49853119
0.48042626
0.56968157
0.83053991
0.96989724
0.43317921
0.59638366
0.56936707
0.83078151
0.36351472
0.34252762
0.43316591
0.59638833
0.43315972
0.59636913
0.99797056
0.99104325
0.99188248
0.99199391
0.99818383
0.99197508
0.25566113
0.12480108
0.43296683
0.59631746
0.20998762
0.59844871
0.21400215
0.62026592
0.17544767
0.35064481
0.25566117
0.12480108
0.43296761
0.59631811
0.20998762
0.59844871
0.99945248
0.99567193
0.99942612
0.89810459
0.97570926
0.89801965
0.51975404
0.45061558
0.43576093
0.51231451
0.88419175
0.88674163
0.86909151
0.63964324
0.88997473
0.67670569
0.8902089
0.86909167
0.63964345
0.48816984
0.5202353
0.79094018
0.51735844
0.78984483
0.292204
0.65710105
0.51214763
0.75113995
0.52059279
0.79270555
0.79275375
0.52076843
0.5205585
0.79270007
0.52076884
0.792753
0.3913816
0.45153381
0.39165258
0.45151056
0.37963225
0.41513167
0.39198459
0.44676296
0.51975445
0.45061577
0.43576112
0.51231488
0.99999969
0.99999361
0.99999321
0.4881585
0.52023592
0.79094055
0.51735905
0.78984519
0.2922043
0.65710132
0.51214823
0.75114028
0.5205934
0.79270591
0.79275411
0.52076905
0.52055912
0.79270043
0.52076946
0.79275336
0.34225339
0.65266533
0.51329252
0.74911678
0.52013778
0.79076905
0.51709894
0.78946688
0.38919179
0.44591065
0.32934859
0.36551456
0.34225368
0.65266559
0.51329313
0.74911711
0.52013839
0.79076941
0.51709956
0.78946725
0.97073062
0.97069693
0.99991865
0.99942809
0.99945851
0.99994631
0.99999754
0.99996707
0.99729826
0.99965863
0.99999738
0.99996336
0.99729888
0.99966277
0.99940144
0.99987866
0.99993522
0.99999577
0.99993397
0.99999169
0.96765534
0.97707148
0.95425961
0.98276022
0.9818626
0.99999609
0.96121394
0.94815169
0.96464581
0.96472283
0.8602033
0.95218839
0.91763595
0.9527703
0.94772184
0.97073066
0.97069698
0.99940593
0.99993531
0.99993955
0.99999988
0.99999667
0.99999597
0.99999754
0.99996707
0.99729827
0.99965863
0.99729888
0.99966277
0.99999738
0.99996336
0.98276022
0.9818626
0.96765538
0.97707149
0.95425965
0.97942165
0.97962389
0.95135956
0.95195307
0.99994785
0.99999645
0.99994785
1
1
1
1
1
1
1
0.99999999
1
0.99995816
0.89689946
0.8975585
0.97068438
0.97067934
0.9707527
0.97075712
0.88711045
0.88713382
0.88713221
0.8871328
0.88707004
0.886948
0.88991851
0.97122258
0.97158268
0.88999158
0.97164895
0.97163396
0.89003044
0.97166825
0.97165849
0.89002574
0.97165261
0.97165492
0.89020328
0.97170129
0.97178244
0.89044923
0.97245593
0.97199799
0.66985107
0.88234862
0.88229434
0.66983271
0.88227002
0.88227586
0.6698478
0.88214172
0.88228904
0.66983311
0.88226868
0.88227086
0.99946206
0.99946224
0.9999485
0.89917364
0.89911391
0.62590465
0.85770712
0.5607781
0.77639712
0.95089401
0.98695232
0.88856589
0.97445631
0.93084797
0.98108469
0.98109353
0.930855
0.98109705
0.98109616
0.93085827
0.98110297
0.98109862
0.93085751
0.98109733
0.98109748
0.90142047
0.97685973
0.95232299
0.93096886
0.98112146
0.98116703
0.93111922
0.98106034
0.98124822
0.96341212
0.96370703
0.99999522
0.9821462
0.98456743
0.99653531
0.98259695
0.98253528
0.99999845
0.99872044
0.98618877
0.99428093
0.96450001
0.96420384
0.98197461
0.89963116
0.95519115
0.96351714
0.88337615
0.95498139
0.87025709
0.98274894
0.98278729
0.7957403
0.92977274
0.79431674
0.92931128
0.95235823
0.95237571
0.53339625
0.65651115
0.75026171
0.92270236
0.79635402
0.92965345
0.79636679
0.92958717
0.95217697
0.95234838
0.79633609
0.92963957
0.79635682
0.92958635
0.97068443
0.97067938
0.97075275
0.97075716
0.99991125
0.99920329
0.99992127
0.97268308
0.99495219
0.97267686
0.62590498
0.85770714
0.93084943
0.98109279
0.98109732
0.93085435
0.98109903
0.98109824
0.93086345
0.98111216
0.98110677
0.930861
0.98110074
0.98110477
0.90142
0.97686346
0.95232445
0.93097479
0.98113004
0.98117557
0.9311257
0.98106565
0.9812573
0.56077811
0.77639721
0.95089401
0.98695232
0.88856601
0.97445635
0.87904887
0.96933335
0.96091017
0.84727628
0.95118154
0.94773049
0.84670165
0.82679799
0.92694921
0.45224668
0.74205882
0.86260792
0.96837355
0.87444534
0.96460685
0.8519305
0.95174003
0.95179546
0.85154318
0.94740499
0.95130198
0.7465251
0.92395519
0.83638389
0.93057494
0.98106022
0.98093967
0.92980242
0.97693092
0.98031736
0.83219579
0.95763683
0.88014453
0.89363542
0.88054788
0.82593033
0.94525256
0.92422442
0.66274096
0.88100828
0.87470249
0.7534142
0.63818106
0.84527878
0.4885534
0.65221516
0.74827412
0.91833849
0.85116253
0.88613188
0.7955697
0.92973332
0.79395379
0.92809585
0.61924435
0.74540987
0.83428934
0.82384939
0.94447684
0.92059449
0.85158439
0.95036564
0.95143009
0.85166532
0.95023414
0.95144595
0.88991865
0.97122262
0.97158272
0.88999172
0.97164899
0.97163401
0.89003058
0.97166829
0.97165854
0.89002587
0.97165266
0.97165497
0.89020342
0.97170133
0.97178248
0.89044937
0.97245598
0.97199804
0.8519305
0.95174003
0.95179546
0.85154317
0.94740495
0.95130198
0.74652467
0.92395502
0.83638333
0.93058087
0.98106953
0.98095136
0.92980623
0.97693397
0.98032654
0.83219531
0.9576397
0.88014845
0.879049
0.96933339
0.96091021
0.84727628
0.95118154
0.94773049
0.84670177
0.82679802
0.92694924
0.45224669
0.7420589
0.86260792
0.96837355
0.87444546
0.96460689
0.89892575
0.89903823
0.99994846
0.99946144
0.99946133
0.99994845
0.8990825
0.8990819
0.99575528
0.99942401
0.9992955
0.99999619
0.99994702
0.99994683
0.89750289
0.97591575
0.89716854
0.43318062
0.59566412
0.8424657
0.95391231
0.84107049
0.9536301
0.56820573
0.82136515
0.9512242
0.98936855
0.94098101
0.98779844
0.41399241
0.59080734
0.47994744
0.79124358
0.43316045
0.59638365
0.84250449
0.95417417
0.84251722
0.95417822
0.4331588
0.59638344
0.84249006
0.95417284
0.84251716
0.95417807
0.99990421
0.99989282
0.99984964
0.99967786
0.99949966
0.96421327
0.96454718
0.89962708
0.95518765
0.98197254
0.96351549
0.54268255
0.82175888
0.95075814
0.98958855
0.56950463
0.82909431
0.9894139
0.94925975
0.99906693
0.99989285
0.99990545
0.96863451
0.99351058
0.96546713
0.9999719
0.99998966
0.99993812
0.43318143
0.59566449
0.8424659
0.95391232
0.84107055
0.9536301
0.56820574
0.82136515
0.9512242
0.98936855
0.94098101
0.98779844
0.41399265
0.59080758
0.47994742
0.79124358
0.43316223
0.59638487
0.84250474
0.95417422
0.84251756
0.95417827
0.43316052
0.59638464
0.84249028
0.95417288
0.8425175
0.95417812
0.36483457
0.56865545
0.17522814
0.55945121
0.43226124
0.59003266
0.84240701
0.95369138
0.83359373
0.95220393
0.20851849
0.58183902
0.85069383
0.95710648
0.83484636
0.95494777
0.99938904
0.99939058
0.8620694
0.95893698
0.21004814
0.58829274
0.95726737
0.84280722
0.19865908
0.58258992
0.36483471
0.5686556
0.17522814
0.55945123
0.43226183
0.5900329
0.84240717
0.95369138
0.83359376
0.95220392
0.20851849
0.58183903
0.85069383
0.95710648
0.83484637
0.95494777
0.99996343
0.99997014
0.99993859
0.99998916
0.98621957
0.99430459
1
0.99999994
1
0.99999999
0.99999845
0.99999993
0.87184205
0.97274608
0.97275459
0.97270427
0.96900563
0.99469483
0.97178264
0.99990632
0.99913578
0.99990632
0.99913578
0.6084009
0.8273738
0.60837891
0.82737819
0.60751868
0.8277392
0.99469484
0.97178268
0.60730946
0.82768399
0.97174413
0.87290837
0.87290855
0.96547169
0.98823457
0.98771461
0.97275926
0.9727574
0.97259732
0.99994845
0.87045001
0.93482093
0.98429247
0.99945779
0.99571792
0.93380214
0.98311459
0.93626355
0.98430301
0.93629086
0.98428265
0.93626562
0.9843063
0.93629105
0.98428262
0.99681669
0.98843734
0.9883743
0.94878884
0.9734907
0.98844049
0.98835373
0.87045002
0.93482106
0.9842925
0.99945779
0.99571792
0.93380228
0.98311463
0.93626368
0.98430305
0.93629099
0.98428268
0.93626575
0.98430634
0.93629119
0.98428266
0.93471625
0.98427852
0.9984471
0.99166203
0.93347763
0.98094161
0.88591844
0.9632125
0.93471639
0.98427855
0.9984471
0.99166204
0.93347777
0.98094165
0.83372573
0.90669533
0.60842729
0.82717927
0.60841152
0.82717711
0.56916449
0.83080641
0.94131327
0.9412092
0.6055162
0.83161206
0.83372575
0.90669532
0.80340828
0.80300649
0.60437166
0.82390183
0.50152487
0.799827
0.83534134
0.90693117
0.80340828
0.8030065
0.99974941
0.9981402
0.98978064
0.99823225
0.99660362
0.98949079
0.98998953
0.99823291
0.9899924
0.99823175
0.98998988
0.99823422
0.98999241
0.99823175
0.99963074
0.99836857
0.99825762
0.99883413
0.99974941
0.9981402
0.98978063
0.99823225
0.99660362
0.98949078
0.98998954
0.99823291
0.98999241
0.99823175
0.98998989
0.99823422
0.98999242
0.99823175
0.99857483
0.9908947
0.98960608
0.99821748
0.9891417
0.98818142
0.9986743
0.99167286
0.99122887
0.99766549
0.99857483
0.9908947
0.98960607
0.99821748
0.9891417
0.98818141
0.9999989
0.99681416
0.99871437
0.99991459
0.99991463
0.99999122
0.99999122
0.99999908
0.99998651
0.99860606
0.63228191
0.64375383
0.99979281
0.99979281
0.48147361
0.3797844
0.44811294
0.48550559
0.99943856
0.55703064
0.61504477
0.44802415
0.48035658
0.99554892
0.97932447
0.61492174
0.63998193
0.99860606
0.99955872
0.99936104
0.99567403
0.99999932
0.99999999
0.99999982
0.99999992
0.99999996
0.99999999
0.99997661
0.49398033
0.55558334
0.49274769
0.52823733
0.99464386
0.9945677
0.99191068
0.99680755
0.99457379
0.47901183
0.47316446
0.99864415
0.99321937
0.96288599
0.99212738
0.47901222
0.47316747
0.47177326
0.63977913
0.26172556
0.43479479
0.26208931
0.43492141
0.99999827
0.60619299
0.99999781
0.99999976
0.99957557
0.99950653
0.99423204
0.57162906
0.47177385
0.49217488
0.52808643
0.99864416
0.99321938
0.99999984
1
1
0.99999655
0.99330886
0.99582162
0.99921612
0.87474457
0.88700483
0.45686909
0.50387027
0.50395821
0.45756296
0.99859775
0.33361262
0.52819551
0.50663199
0.45027464
0.47625448
0.47679357
0.99923996
0.99988863
0.99057478
0.99250807
0.99367977
0.99585154
0.99998638
0.99999648
0.99329911
0.47625425
0.47679704
0.99988863
0.9905748
0.9925081
0.99367978
0.48218156
0.44265879
0.49737632
0.44671631
0.98860608
0.61055504
0.99315296
0.60623848
0.99999379
0.99989564
0.42060745
0.44855479
0.99999949
0.99999906
0.99999984
1
0.9931476
0.52948714
0.61599754
0.9880337
0.45516829
0.50357326
0.4689639
0.37901449
0.99921612
0.87474473
0.88700496
0.99994696
0.99954758
0.52845479
0.52843404
1
0.99999999
1
0.96870628
0.49841266
0.53007217
0.9761158
0.6664481
0.66700559
0.66696966
0.66701591
0.6689492
0.66499643
0.6668644
0.66499667
0.45757576
0.50395579
0.50395443
0.45757705
0.45755777
0.50396362
0.50483382
0.45547362
0.66768091
0.994778
0.66350626
0.9582025
0.47769448
0.96726563
0.67733679
0.67684038
0.97637081
0.53920255
0.55757189
0.52330931
0.5359135
0.96874222
0.95820256
0.47769501
0.96726571
0.6652714
0.61606083
0.79961463
0.70082821
0.52352341
0.80146263
0.79444174
0.36234249
0.38305522
0.7722444
0.4815353
0.4432549
0.49336054
0.44471217
0.99805052
0.99999972
0.99906706
0.36181933
0.38526696
0.80078092
0.80080966
0.79959171
0.80054367
0.49577311
0.79509012
0.79960879
0.799186
0.99999205
0.99999716
0.99870108
1
0.99869511
0.99999041
0.99737806
0.99793428
0.39906736
0.27395259
0.79202449
0.52268302
0.51309839
0.7933285
0.79825119
0.79896847
0.61277598
0.37715564
0.6161998
0.61625062
0.61759789
0.61756582
0.61683053
0.61622059
0.66644836
0.66700585
0.66696992
0.66701617
0.66894957
0.66499671
0.66686466
0.66499694
0.80146263
0.79444175
0.36233758
0.38305534
0.77224441
0.66527166
0.61606106
0.79961463
0.7008283
0.52352362
0.80063446
0.79329506
0.31238355
0.41566383
0.77384823
0.61196233
0.61672752
0.59814048
0.33134406
0.67733717
0.67684068
0.99999974
0.99999996
0.99999462
0.99985892
0.88924376
0.88960842
0.99983404
0.9955198
0.99587094
0.99999644
0.88825341
0.93465294
0.82424155
0.93605942
0.92852104
0.9999973
0.99996552
0.99961124
0.99995484
0.9999998
0.82576647
0.58830607
0.99323715
0.6139515
0.99327823
0.93050756
0.99563717
0.97934212
0.97943845
0.93050278
0.99282885
0.57650249
0.9267552
0.62109554
0.62185932
0.99301555
0.99329358
0.99345188
0.59892322
0.92778458
0.84181862
0.61908789
0.9911266
0.51944916
0.84481729
0.98946839
0.99984079
0.94772604
0.99910891
0.84478501
0.88924388
0.88960855
0.93605942
0.92852104
0.88825354
0.93465294
0.82424166
0.999916
0.99938745
0.99583598
0.93045608
0.99664698
0.99623057
0.99932462
0.98042574
0.92584027
0.84171425
0.99877241
0.99354522
0.84662856
0.99999982
0.99999998
1
1
0.99999999
1
0.99999999
1
0.99999633
0.99871953
0.99958831
0.99624481
0.98027326
0.9962507
0.99580281
0.69028294
0.54402153
0.49868297
0.98030036
0.52829977
0.97606589
0.88958665
0.88961325
0.88952683
0.88776013
0.66185946
0.99466133
0.66197559
0.99465662
0.66197138
0.66197216
0.66197085
0.99471703
0.66240183
0.67007266
0.97039849
0.67304924
0.99587471
0.99999702
0.9958736
0.9999965
0.97642015
0.53351758
0.97639124
0.53438569
0.37720733
0.96559744
0.44460992
0.90283655
0.37839635
0.17981026
0.17132001
0.99997515
0.99999951
0.61139619
0.99433212
0.99319735
0.99999969
0.99974258
0.99993449
0.99992734
0.99906558
0.99755077
0.99688589
0.932404
0.93054901
0.99860324
0.93240742
0.93176685
0.9999956
0.99999952
0.99999983
0.99999705
0.99999984
0.99997776
0.99900116
0.99994928
0.91813284
0.99448431
0.99297709
0.62184796
0.6201669
0.9881325
0.99736531
0.76310435
0.97576916
0.98907401
0.66142628
0.92742014
0.6150754
0.372893
0.93341716