/*--------------------------------*- C++ -*----------------------------------*\
  =========                 |
  \\      /  F ield         | OpenFOAM: The Open Source CFD Toolbox
   \\    /   O peration     | Website:  https://openfoam.org
    \\  /    A nd           | Version:  8
     \\/     M anipulation  |
\*---------------------------------------------------------------------------*/
/*   Windows 32 and 64 bit porting by blueCAPE: http://www.bluecape.com.pt   *\
|  Based on Windows porting (2.0.x v4) by Symscape: http://www.symscape.com   |
\*---------------------------------------------------------------------------*/
FoamFile
{
    version     2.0;
    format      ascii;
    class       volScalarField;
    location    "0/vegetation";
    object      viewFactorField;
}
// * * * * * * * * * * * * * * * * * * * * * * * * * * * * * * * * * * * * * //

dimensions      [0 0 0 0 0 0 0];

internalField   uniform 0;

boundaryField
{
    left
    {
        type            calculated;
        value           nonuniform List<scalar> 0();
    }
    right
    {
        type            calculated;
        value           nonuniform List<scalar> 
154
(
1.0395958
1.0395958
1.0395958
1.0387856
1.0387856
1.0387856
1.0387856
1.0682072
1.0682072
1.0682072
1.0682072
1.0682072
1.0682072
1.0682072
1.0682072
1.0682072
1.0682072
1.0682072
1.0682072
1.0682072
1.0682072
1.0682072
1.0682072
1.0682072
1.0682072
1.0682072
1.0682072
1.0682072
1.0682072
1.0682072
1.0682072
1.0387856
1.0682072
1.0387856
1.0682072
1.0387856
1.0682072
1.0387856
1.0682072
1.0682072
1.0682072
1.0682072
1.0682072
1.0682072
1.0682072
1.0387856
1.0387856
1.0387856
1.0387856
1.036742
1.036742
1.036742
1.036742
1.0629085
1.0629085
1.0629085
1.0575533
1.0575533
1.0575533
1.0575533
1.0575533
1.0575533
1.0575533
1.0575533
1.0629085
1.0629085
1.0629085
1.0629085
1.0629085
1.0629085
1.0575533
1.0575533
1.0575533
1.0575533
1.0575533
1.0575533
1.0575533
1.0575533
1.0575533
1.0575533
1.0575533
1.0575533
1.0575533
1.0575533
1.0575533
1.0575533
1.0629085
1.0629085
1.0629085
1.0629085
1.0629085
1.0629085
1.0629085
1.0629085
1.0629085
1.0629085
1.0629085
1.0629085
1.0629085
1.0629085
1.0629085
1.036742
1.036742
1.036742
1.036742
1.036742
1.036742
1.036742
1.036742
1.036742
1.036742
1.036742
1.036742
1.0629085
1.0395958
1.0629085
1.0395958
1.0629085
1.0629085
1.0375699
1.0375699
1.0395958
1.0395958
1.0629085
1.0375699
1.0375699
1.0375699
1.0375699
1.0375699
1.0387856
1.0375699
1.0375699
1.0375699
1.0387856
1.0375699
1.0375699
1.0375699
1.0387856
1.0375699
1.0375699
1.0375699
1.0387856
1.0395958
1.0395958
1.0395958
1.0395958
1.0395958
1.0395958
1.0395958
1.0395958
1.0395958
1.0395958
1.0395958
1.0395958
)
;
    }
    back
    {
        type            calculated;
        value           nonuniform List<scalar> 
49
(
1.0385188
1.0385188
1.0385188
1.0385188
1.0803018
1.0803018
1.0803018
1.0803018
1.0803018
1.0803018
1.0385188
1.0385188
1.0803018
1.0803018
1.0803018
1.0803018
1.0803018
1.0803018
1.0803018
1.0803018
1.0803018
1.0803018
1.0803018
1.0803018
1.0803018
1.0803018
1.0803018
1.0803018
1.0803018
1.0803018
1.0803018
1.0803018
1.0803018
1.0803018
1.0803018
1.0385188
1.0385188
1.0385188
1.0385188
1.0385188
1.0385188
1.0385188
1.0385188
1.0385188
1.0385188
1.0385188
1.0385188
1.0385188
1.0385188
)
;
    }
    front
    {
        type            calculated;
        value           nonuniform List<scalar> 
42
(
1.0588453
1.0682262
1.0682262
1.0588453
1.0588453
1.0588453
1.0588453
1.0682262
1.0682262
1.0682262
1.0588453
1.0588453
1.0588453
1.0588453
1.0682262
1.0682262
1.0682262
1.0588453
1.0588453
1.0588453
1.0588453
1.0682262
1.0682262
1.0682262
1.0588453
1.0588453
1.0588453
1.0588453
1.0682262
1.0682262
1.0682262
1.0588453
1.0588453
1.0588453
1.0588453
1.0682262
1.0682262
1.0682262
1.0588453
1.0588453
1.0588453
1.0682262
)
;
    }
    bottom
    {
        type            calculated;
        value           nonuniform List<scalar> 
386
(
1.0511844
1.0511844
1.0632129
1.0632129
1.0087381
1.0087381
1.1524858
1.0087381
1.0087381
1.1524858
1.0689022
1.0689022
1.1524858
1.0689022
1.0689022
1.1524858
1.0014808
1.0014808
1.0632129
1.0689022
1.0632129
1.0689022
1.0014808
0.98447209
1.0511844
0.99698069
0.99698069
0.99698069
0.99698069
1.0014808
1.0014808
0.98447209
0.98447209
1.0669931
1.0669931
0.98447209
1.0041142
0.99755739
1.0041142
1.0041142
1.0041142
0.99361936
0.99361936
1.0031277
1.0031277
1.0046372
1.0636805
1.0636805
1.0031014
1.0031014
1.0046372
1.0054462
1.0046372
1.0643489
1.0636805
1.0643489
1.0636805
1.0038074
1.0038074
1.0038074
1.0038074
1.0054462
1.0651508
1.0712056
1.0712056
1.006598
1.0054462
1.0712056
1.0712056
1.1246829
1.0643489
1.1246829
1.1246829
1.1246829
1.0643489
1.0651508
1.0651508
1.006598
1.0651508
1.0651508
1.006598
1.0651508
1.006598
1.0054462
1.0031014
1.0031014
1.0046372
1.0046124
1.0046124
1.0636506
1.0636506
1.0031277
1.0053616
1.0031277
1.0044301
1.0046124
1.0044301
1.0046124
1.0092943
1.0636506
1.0092943
1.0636506
1.1160251
1.0092943
1.1160251
1.0053616
1.0044301
1.0044301
1.0092943
0.99494361
0.99494361
1.0006043
0.99494361
1.0006043
1.0006043
1.0041142
1.0006043
1.0006043
1.0006043
1.0669931
1.1160251
1.1160251
1.1160251
1.0669931
0.99186498
1.0098335
0.98586852
1.0106858
1.0106858
1.0027009
1.0290531
1.0012613
1.0027009
1.0367455
1.0012613
1.0091105
0.99384921
0.95457555
1.0101594
1.0037593
1.0418427
1.0037593
0.96445087
1.0091105
0.9786437
0.99186498
0.99186498
0.98586852
1.0290531
0.98586852
0.98586852
1.0290531
1.0027009
1.0106858
1.0367455
1.0027009
1.0290531
1.0418427
1.0091105
1.0012613
0.99384921
0.95457555
0.99186498
0.95457555
1.0418427
0.95457555
1.0101594
1.0101594
1.0101594
1.0744819
0.96445087
1.0037593
0.9786437
1.0091105
1.0418427
0.96445087
0.96445087
1.0744819
1.0098335
0.99074479
0.99074479
1.0187094
0.96643458
1.0552947
1.0552947
1.0187094
1.0224127
1.0098335
1.0098335
1.0187094
1.0098335
0.99074479
0.99074479
0.99074479
0.99074479
1.0224127
1.0187094
1.0187094
0.96643458
1.0552947
1.0106858
1.0352823
1.0352823
1.0352823
1.0352823
0.96808021
1.0367455
1.0367455
0.97346338
1.0012613
0.97346338
0.97346338
0.96808021
0.96808021
0.96808021
0.99734414
0.97346338
0.99734414
1.0037593
1.0423158
1.0423158
0.9786437
0.9786437
0.9786437
1.0423158
1.0423158
0.97354811
0.99734414
0.99734414
0.99734414
0.97354811
0.97354811
0.97354811
0.96643458
1.0128503
1.0128503
1.0128503
1.0128503
0.96643458
0.89148691
0.89148691
0.89148691
1.0224127
1.0224127
0.98689839
1.0552947
0.98689839
0.89148691
1.0187094
0.98689839
0.98689839
1.0093562
0.99384921
0.99755739
0.99229319
1.0277321
1.0277321
0.97247663
0.96554551
0.96554551
0.99156427
1.020071
1.0277321
1.020071
1.0093562
1.0093562
0.99384921
0.96554551
0.97247663
0.99291947
0.98409667
0.99156427
0.96554551
1.020071
1.0277321
0.99903498
1.0013987
1.0331633
1.1221916
0.98409667
1.0485612
1.0546475
0.99156427
1.0485612
0.99903498
0.99903498
1.0331633
1.0331633
1.0013987
1.0546475
1.0013987
1.0064901
1.1221916
1.0546475
0.99229319
1.0093562
1.0093562
1.0064901
1.0064901
1.0331633
0.98409667
0.99156427
0.98409667
1.0105302
1.0546475
1.0013987
1.0546475
1.1221916
1.1221916
1.0064901
1.1221916
0.99229319
1.0331633
1.0331633
1.0331633
1.0093562
1.0093562
0.99903498
0.99755739
0.99755739
0.99229319
0.97355286
0.97355286
0.97355286
0.97305564
0.97305564
0.97305564
1.0520742
1.0520742
0.97355286
1.0352124
1.0352124
0.97305564
0.90657821
0.90657821
0.90657821
1.0485612
1.0485612
0.90657821
1.0105302
1.0105302
1.0105302
1.0352124
1.0352124
1.0352124
1.0744819
0.99291947
1.0113619
1.0113619
0.97247663
1.0744819
0.99291947
0.97247663
0.99291947
1.020071
1.0113619
0.97714017
0.97714017
1.0113619
0.97714017
0.97714017
1.0520742
1.0520742
1.0520742
0.99361936
0.99494361
0.99361936
0.99494361
0.99494361
0.99494361
1.0053616
1.0135179
1.0135179
1.0135179
1.0135179
1.0053616
1.0053616
1.0135179
1.0135179
1.0135179
1.0135179
1.0135179
1.0687908
1.0687908
1.0511844
1.0511844
)
;
    }
    top
    {
        type            calculated;
        value           nonuniform List<scalar> 
144
(
1.0102252
1.0102252
1.0684391
1.0684391
1.0079899
1.0101449
1.0687342
1.0687342
1.0102252
1.0684391
1.0684391
1.0101449
1.0687342
1.0687342
1.0422266
1.0422266
1.0422266
1.0422266
1.1116819
1.1116819
1.1116819
1.1116819
1.1116819
1.1116819
1.0576043
1.0576043
1.0576043
1.0576043
1.0576043
1.0101449
1.0101449
1.0079899
1.0079899
1.0102252
1.0079899
1.0044584
1.0044584
1.0047569
1.0096334
1.0096334
1.1155928
1.004254
1.004254
1.0047569
1.0099667
1.0096334
1.0099667
1.0096334
1.1155928
1.1155928
1.0047113
1.0047113
1.0657754
1.0657754
1.0065726
1.0065726
1.0715382
1.0715382
1.1016395
1.0099667
1.0715382
1.0715382
1.1016395
1.0099667
1.1016395
1.1016395
1.1016395
1.1155928
1.0657754
1.0657754
1.0065726
1.0047113
1.0657754
1.0657754
1.0065726
1.0047113
1.0047569
1.004254
1.004254
1.0100139
1.0100139
1.116932
1.0047569
1.0044584
1.0052079
1.0044584
1.0052079
1.0061669
1.0061669
1.0100139
1.0111676
1.0100139
1.0111676
1.116932
1.116932
1.0052079
1.0052079
1.0061669
1.0111676
1.0111676
1.116932
1.0077378
1.0064759
1.0061669
1.057435
1.0077378
1.0064759
1.0064759
1.0064759
1.0082564
1.0082564
1.0082564
1.057435
1.040887
1.0082564
1.057435
1.057435
1.040887
1.040887
1.057435
1.057435
1.057435
1.040887
1.0077378
1.0077378
1.0077378
1.0089441
1.0500745
1.0500745
1.0500745
1.0500745
1.0500745
1.0500745
1.0105745
1.0105745
1.0105745
1.0105745
1.0105745
1.0105745
1.0089441
1.0077378
1.0089441
1.0077378
1.0089441
)
;
    }
    Building
    {
        type            calculated;
        value           nonuniform List<scalar> 
756
(
0.99141421
0.99157346
0.99153409
0.99090497
0.99098128
0.99072407
0.99169573
0.99202232
0.99215169
0.99216287
0.99229455
0.99104053
0.9913754
0.99086897
0.99133846
0.99188102
0.99150688
0.99153369
0.99197982
0.99179866
0.99211948
0.99303474
0.99318169
0.99236281
0.99257342
0.99280193
0.99079877
0.990689
0.99254885
0.99032492
0.99041595
0.99038009
0.99038095
0.99096696
0.99013093
0.99031097
0.99125652
0.99225428
0.99178419
0.99271653
0.99316598
0.99134904
0.9936457
0.99329154
0.9920256
0.99181151
0.99145515
0.99124984
0.99161529
0.99172778
0.99149554
0.99136734
0.99094324
0.99108016
0.9910178
0.9911953
0.99076148
0.99057383
0.99053726
0.99165649
0.99185244
0.99187734
0.9920668
0.99200437
0.99211037
0.99229914
0.99220819
0.99256749
0.99243129
0.99225255
0.9924331
0.99072216
0.9907874
0.99161804
0.99212886
0.99308552
0.99292127
0.99294702
0.993135
0.9930661
0.99280431
0.99258383
0.99083465
0.99061039
0.99064567
0.99045064
0.99024939
0.99034431
0.99014501
0.9904393
0.99065734
0.99089564
0.9915283
0.99143771
0.99117519
0.99247083
0.99214119
0.99235236
0.99202575
0.99191917
0.99168515
0.99082956
0.99121304
0.99109737
0.9912691
0.99254113
0.99223011
0.99210948
0.99200399
0.99158651
0.99149487
0.99142505
0.99242601
0.99375971
0.99279266
0.99267614
0.9925535
0.99229847
0.99267326
0.99218376
0.99121196
0.99134349
0.99083419
0.99104324
0.9916871
0.99149558
0.99183573
0.99194401
0.99225492
0.99207816
0.99238623
0.99287317
0.99275695
0.99066114
0.99050304
0.99011245
0.99008065
0.991196
0.99233071
0.99269785
0.99255944
0.99086431
0.99207284
0.99247433
0.99282431
0.99268374
0.99298594
0.99259299
1.0327625
0.99122236
1.0325075
0.99236986
0.99029485
0.99023464
0.99050996
1.0325859
0.9914356
1.0326866
0.99197445
0.99288019
1.0325173
0.99303072
1.0328074
0.99054804
0.9905431
0.99121346
1.0332337
0.99240616
1.0330886
0.99212575
1.0333794
0.99352961
1.0329475
0.99341165
0.99177215
0.99159444
0.99128988
0.99177051
0.99132948
0.9911193
0.99115812
0.99181251
0.99192095
0.99196375
0.9923453
0.99265382
0.99252413
0.99260721
0.99247826
0.99239042
0.99111269
0.99141733
0.99170319
0.99222487
0.99197191
0.99297131
0.99277962
0.99290167
0.99302009
0.99273228
0.99285361
0.99268798
0.99246324
0.99052572
0.99098086
0.99027408
0.99022079
0.99002176
0.98992344
0.9902114
0.98989973
0.98989313
0.99027499
0.98992699
0.98996651
0.99021525
0.99018004
0.99001421
0.9900661
0.99059661
0.99075863
0.99163108
0.99097497
0.99136472
0.99181035
0.9911766
0.99049469
0.9907842
0.99074957
0.99050399
0.99077573
0.99100553
0.99098837
0.99102998
0.99186616
0.9920216
0.99226822
0.99170646
0.99154047
0.99191339
0.99181857
0.9919442
0.99170904
0.9914091
0.99162618
1.0335341
0.99289986
0.99217361
0.99211187
0.99117552
0.99101336
0.9916532
0.99179597
0.99221731
0.9925136
0.99234345
0.9929437
0.99282781
0.99263711
0.99271613
0.99046984
0.99028502
1.0291406
0.98961085
0.99340081
1.0275809
0.98947759
0.98778063
0.98777399
0.9879421
0.98873932
0.99133759
0.98787936
0.98778482
0.98802898
0.9880398
0.98868528
0.9901657
0.98833881
0.98917916
0.98822848
0.98806165
0.98876148
0.98916945
0.98924027
0.98904579
0.98839137
0.98829685
0.98914265
0.98813535
0.98804199
0.98779069
0.98783265
0.98928015
0.99004171
0.98937808
0.98993916
0.98793339
0.98801278
0.98791004
0.98784975
0.98803616
0.98807387
0.98868921
0.98866738
0.98901631
0.98817679
0.98826805
0.98883323
0.98972669
0.98990738
0.98925047
0.98815092
0.98809047
0.98872165
0.98918086
0.98921657
0.99046386
0.99254883
1.0127728
0.98965073
0.99079796
0.98753429
0.98777362
0.98750834
0.98777086
0.9880491
0.98751794
0.98820556
0.98826902
0.98751531
0.98783596
0.98750677
0.98780505
0.98880371
0.98907798
0.98835974
0.98864899
0.98855376
0.98832791
0.98911061
0.9888997
0.98789197
0.98810457
0.98780162
0.9880729
0.98754751
0.98780297
0.98759421
0.98781703
0.9893127
0.98950697
0.9898274
0.98934574
0.98960626
0.98972655
0.98795846
0.9876955
0.98777283
0.987985
0.98767255
0.98788841
0.98761192
0.98786834
0.9837904
0.99856504
0.98993455
0.98837187
0.98825414
0.988026
0.98802886
0.98827816
0.98850636
0.98866388
0.98966551
0.98877618
0.98815153
0.98852596
0.98809766
0.9883069
0.98825902
0.98804643
0.98805912
0.98829411
0.98877405
0.98900332
0.98820774
0.98840005
0.98852492
0.98823926
0.98969543
0.98988318
0.98947657
0.98922474
0.98812889
0.98837165
0.98810883
0.98830989
1.0319173
0.99069597
1.0837224
0.98954386
0.9897242
1.0159185
0.99197741
0.98866194
0.98928563
0.98893155
0.98953458
0.98914874
0.9895964
0.98939792
0.98955017
0.98962131
0.98930757
0.98876029
0.9895807
0.98915642
0.98966772
0.98925996
0.99000471
0.98972324
1.0038142
0.99314369
0.98752284
0.9875139
0.98754462
0.98768865
0.98751272
0.98750887
0.98883558
0.98861724
0.9885852
0.98886787
0.98786304
0.98783195
0.98756202
0.9875776
0.98954003
0.99000808
0.98979425
0.98957354
0.98997348
0.98976022
0.98771984
0.9877456
0.987651
0.98763081
0.97660313
0.98800048
0.98825416
0.98826093
0.9888832
0.9891969
0.9884229
0.9883556
0.98826812
0.98827945
0.98875399
0.98845705
0.98850998
0.9896651
0.98945473
0.98834839
0.98832879
0.99356593
0.99449811
0.99443577
0.99425443
0.99460483
0.99443431
0.9939195
0.99435055
0.99417258
0.99386376
0.99375894
0.99422235
0.99443431
0.99350647
0.99336489
0.99316602
0.99324261
0.99319985
0.99365329
0.99379895
0.99407242
0.99394064
0.99456431
0.99441672
0.99437813
0.99452041
0.99431704
0.99433566
0.99468945
0.99462875
0.99397763
0.99400544
0.99429395
0.9942644
0.994234
0.9940897
0.99351232
0.99338721
0.99437654
0.99435423
0.99419437
0.99427441
0.99394873
0.99381214
0.99411369
0.99403192
0.99326427
0.99306544
0.99407456
0.99367358
0.99393394
0.99422286
0.99413891
0.9939199
0.99378552
0.99406199
0.99353602
1.0345491
0.99334788
1.0351659
1.0342626
0.99435279
1.0346518
0.99449169
0.99313672
0.99292615
0.99339812
0.99314602
0.99347598
0.99308803
0.99353627
0.9938078
0.99448175
0.99446171
0.99439948
0.99454511
0.99406461
0.99420882
0.99414997
0.99366467
0.99362925
0.99340387
0.99325755
0.99294321
0.99320929
0.99278757
0.99326952
0.99312398
0.99298951
0.993015
0.99286348
0.99276952
0.99429618
0.99422038
0.99389905
0.99397852
0.99405988
0.99332831
0.99390304
0.99358407
0.9941282
1.0909838
0.99399901
0.99297174
0.99325584
0.99308336
0.99346569
0.99376081
0.99352169
0.99345735
0.99362003
0.99369252
0.99308494
0.99381017
0.99325455
0.99047989
1.0433245
0.99380671
0.99413455
0.99313017
0.99341697
0.99331046
0.99422884
0.9912904
0.99280473
0.99367305
0.99310072
0.99428344
0.99384721
0.99409021
0.99394213
0.99409442
0.98049182
1.0068681
0.99191091
0.99122549
0.99400694
0.99380226
0.9936762
0.99369612
0.99410372
0.99419562
0.99409073
0.99285911
0.99291167
0.99227706
0.99296648
0.99306018
0.99321167
0.99354675
0.99334103
0.99417872
0.99382098
0.99372445
0.99362456
0.99347878
0.99312287
0.99316159
0.99387605
0.99332023
0.99321355
0.99316942
0.99331262
0.99338934
0.993914
0.99400368
0.99417397
0.99410335
0.99418058
1.0205385
0.99657239
0.9901427
0.99780804
0.99392569
0.99403409
0.99321358
0.99431819
0.99192862
0.9924221
0.9935182
0.99333223
0.99378349
0.99440357
0.98805363
0.9907128
0.99390433
0.99379463
0.99265
0.99245675
0.99324198
0.99340322
0.99366609
0.99357584
0.99324359
0.99346829
0.9932248
0.9932988
0.99393699
0.99401857
0.99383159
0.99371189
0.99355392
0.99399727
0.99314484
0.99361174
0.99329391
0.9934561
0.99408803
0.99334946
0.99298976
0.9937768
0.99341017
0.99350156
0.99358958
0.9932196
0.99340449
0.99301708
0.99322658
0.9928706
0.99410208
0.99374149
0.99388875
0.99366166
0.9938094
0.99364899
0.99360845
0.99394455
0.99390447
0.99319635
0.99325169
0.99350879
0.99356226
0.99324655
0.99340289
0.9933554
0.99350985
0.9940344
0.99417699
0.99317534
0.99305421
0.99292684
0.99274504
0.99261389
0.99279372
0.99368755
0.99372889
0.99359588
0.99345273
0.9932015
0.99330449
0.99335954
0.99309533
1.0336926
1.033861
0.99296445
0.99232414
0.99307152
0.99387216
1.0340437
0.99398606
0.992277
0.99270067
0.99379773
0.99375839
0.99370436
0.99385262
0.99330393
0.99346004
0.99335485
0.99340839
0.9941224
0.99346359
0.99328722
0.99309946
0.99309811
0.9924813
0.99282862
0.99265834
0.99280392
0.99263088
0.99247614
0.99293632
0.99235931
0.99260648
0.99244169
0.99253174
0.99363743
0.99354952
0.99304881
0.99315789
0.99325683
)
;
    }
    air_to_vegetation
    {
        type            calculated;
        value           nonuniform List<scalar> 0();
    }
    procBoundary9to0
    {
        type            processor;
        value           uniform 0;
    }
    procBoundary9to1
    {
        type            processor;
        value           uniform 0;
    }
    procBoundary9to5
    {
        type            processor;
        value           uniform 0;
    }
    procBoundary9to6
    {
        type            processor;
        value           uniform 0;
    }
    procBoundary9to7
    {
        type            processor;
        value           uniform 0;
    }
    procBoundary9to8
    {
        type            processor;
        value           uniform 0;
    }
    procBoundary9to10
    {
        type            processor;
        value           uniform 0;
    }
    procBoundary9to11
    {
        type            processor;
        value           uniform 0;
    }
}


// ************************************************************************* //
