/*--------------------------------*- C++ -*----------------------------------*\
  =========                 |
  \\      /  F ield         | OpenFOAM: The Open Source CFD Toolbox
   \\    /   O peration     | Website:  https://openfoam.org
    \\  /    A nd           | Version:  8
     \\/     M anipulation  |
\*---------------------------------------------------------------------------*/
/*   Windows 32 and 64 bit porting by blueCAPE: http://www.bluecape.com.pt   *\
|  Based on Windows porting (2.0.x v4) by Symscape: http://www.symscape.com   |
\*---------------------------------------------------------------------------*/
FoamFile
{
    version     2.0;
    format      ascii;
    class       volVectorField;
    location    "0/air";
    object      U;
}
// * * * * * * * * * * * * * * * * * * * * * * * * * * * * * * * * * * * * * //

dimensions      [0 1 -1 0 0 0 0];

internalField   uniform (7 0 0);

boundaryField
{
    left
    {
        type            slip;
    }
    right
    {
        type            slip;
    }
    back
    {
        type            inletOutlet;
        inletValue      nonuniform List<vector> 0();
        value           nonuniform List<vector> 0();
    }
    front
    {
        type            atmBoundaryLayerInletVelocity;
        Uref            7;
        Zref            10;
        zDir            ( 0 0 1 );
        flowDir         ( 1 0 0 );
        z0              uniform 1;
        zGround         uniform 0;
        value           nonuniform List<vector> 0();
    }
    bottom
    {
        type            fixedValue;
        value           uniform (0 0 0);
    }
    top
    {
        type            slip;
    }
    Building
    {
        type            fixedValue;
        value           uniform (0 0 0);
    }
    procBoundary7to0
    {
        type            processor;
        value           uniform (7 0 0);
    }
    procBoundary7to2
    {
        type            processor;
        value           uniform (7 0 0);
    }
    procBoundary7to6
    {
        type            processor;
        value           uniform (7 0 0);
    }
    procBoundary7to8
    {
        type            processor;
        value           uniform (7 0 0);
    }
    procBoundary7to10
    {
        type            processor;
        value           uniform (7 0 0);
    }
}


// ************************************************************************* //
