/*--------------------------------*- C++ -*----------------------------------*\
  =========                 |
  \\      /  F ield         | OpenFOAM: The Open Source CFD Toolbox
   \\    /   O peration     | Website:  https://openfoam.org
    \\  /    A nd           | Version:  8
     \\/     M anipulation  |
\*---------------------------------------------------------------------------*/
/*   Windows 32 and 64 bit porting by blueCAPE: http://www.bluecape.com.pt   *\
|  Based on Windows porting (2.0.x v4) by Symscape: http://www.symscape.com   |
\*---------------------------------------------------------------------------*/
FoamFile
{
    version     2.0;
    format      ascii;
    class       volScalarField;
    location    "0/vegetation";
    object      T;
}
// * * * * * * * * * * * * * * * * * * * * * * * * * * * * * * * * * * * * * //

dimensions      [0 0 0 1 0 0 0];

internalField   uniform 297;

boundaryField
{
    left
    {
        type            mapped;
        field           T;
        setAverage      0;
        average         0;
        interpolationScheme cell;
        value           nonuniform List<scalar> 0();
    }
    right
    {
        type            mapped;
        field           T;
        setAverage      0;
        average         0;
        interpolationScheme cell;
        value           nonuniform List<scalar> 0();
    }
    back
    {
        type            mapped;
        field           T;
        setAverage      0;
        average         0;
        interpolationScheme cell;
        value           nonuniform List<scalar> 0();
    }
    front
    {
        type            mapped;
        field           T;
        setAverage      0;
        average         0;
        interpolationScheme cell;
        value           nonuniform List<scalar> 0();
    }
    bottom
    {
        type            mapped;
        field           T;
        setAverage      0;
        average         0;
        interpolationScheme cell;
        value           uniform 297;
    }
    top
    {
        type            mapped;
        field           T;
        setAverage      0;
        average         0;
        interpolationScheme cell;
        value           nonuniform List<scalar> 0();
    }
    tower
    {
        type            mapped;
        field           T;
        setAverage      0;
        average         0;
        interpolationScheme cell;
        value           uniform 297;
    }
    air_to_vegetation
    {
        type            mappedLeafTemperature;
        field           Tl;
        setAverage      0;
        average         0;
        interpolationScheme cell;
        value           uniform 297;
    }
    procBoundary11to10
    {
        type            processor;
        value           uniform 297;
    }
    procBoundary11to13
    {
        type            processor;
        value           uniform 297;
    }
    procBoundary11to14
    {
        type            processor;
        value           uniform 297;
    }
    procBoundary11to15
    {
        type            processor;
        value           uniform 297;
    }
    procBoundary11to16
    {
        type            processor;
        value           uniform 297;
    }
    procBoundary11to19
    {
        type            processor;
        value           uniform 297;
    }
}


// ************************************************************************* //
