/*--------------------------------*- C++ -*----------------------------------*\
  =========                 |
  \\      /  F ield         | OpenFOAM: The Open Source CFD Toolbox
   \\    /   O peration     | Website:  https://openfoam.org
    \\  /    A nd           | Version:  8
     \\/     M anipulation  |
\*---------------------------------------------------------------------------*/
/*   Windows 32 and 64 bit porting by blueCAPE: http://www.bluecape.com.pt   *\
|  Based on Windows porting (2.0.x v4) by Symscape: http://www.symscape.com   |
\*---------------------------------------------------------------------------*/
FoamFile
{
    version     2.0;
    format      ascii;
    class       volScalarField;
    location    "0/air";
    object      nut;
}
// * * * * * * * * * * * * * * * * * * * * * * * * * * * * * * * * * * * * * //

dimensions      [0 2 -1 0 0 0 0];

internalField   uniform 0.1;

boundaryField
{
    left
    {
        type            slip;
    }
    right
    {
        type            slip;
    }
    back
    {
        type            calculated;
        value           nonuniform List<scalar> 0();
    }
    front
    {
        type            calculated;
        value           uniform 0.1;
    }
    bottom
    {
        type            nutkAtmRoughWallFunction;
        z0              uniform 1;
        value           uniform 0.1;
    }
    top
    {
        type            slip;
    }
    tower
    {
        type            nutkWallFunction;
        Cmu             0.09;
        kappa           0.41;
        E               9.8;
        value           uniform 0.1;
    }
    procBoundary19to15
    {
        type            processor;
        value           uniform 0.1;
    }
    procBoundary19to16
    {
        type            processor;
        value           uniform 0.1;
    }
    procBoundary19to17
    {
        type            processor;
        value           uniform 0.1;
    }
    procBoundary19to18
    {
        type            processor;
        value           uniform 0.1;
    }
}


// ************************************************************************* //
