/*--------------------------------*- C++ -*----------------------------------*\
  =========                 |
  \\      /  F ield         | OpenFOAM: The Open Source CFD Toolbox
   \\    /   O peration     | Website:  https://openfoam.org
    \\  /    A nd           | Version:  8
     \\/     M anipulation  |
\*---------------------------------------------------------------------------*/
/*   Windows 32 and 64 bit porting by blueCAPE: http://www.bluecape.com.pt   *\
|  Based on Windows porting (2.0.x v4) by Symscape: http://www.symscape.com   |
\*---------------------------------------------------------------------------*/
FoamFile
{
    version     2.0;
    format      ascii;
    class       volScalarField;
    location    "0/vegetation";
    object      viewFactorField;
}
// * * * * * * * * * * * * * * * * * * * * * * * * * * * * * * * * * * * * * //

dimensions      [0 0 0 0 0 0 0];

internalField   uniform 0;

boundaryField
{
    left
    {
        type            calculated;
        value           nonuniform List<scalar> 0();
    }
    right
    {
        type            calculated;
        value           nonuniform List<scalar> 
72
(
1.0098408
1.0681003
1.0681003
1.0131343
1.0131343
1.0131343
1.0098408
1.0681003
1.0098408
1.0131343
1.0131343
1.0681003
1.0681003
1.0131343
1.0131343
1.0131343
1.0098408
1.0098408
1.0131343
1.0131343
1.0098408
1.0098408
1.0098408
1.0681003
1.0681003
1.0681003
1.0681003
1.0131343
1.0131343
1.0131343
1.0131343
1.0131343
1.0131343
1.0681003
1.0098408
1.0098408
1.0098408
1.0098408
1.0681003
1.0098408
1.0098408
1.0098408
1.0131343
1.0681003
1.0681003
1.0131343
1.0681003
1.0681003
1.0681003
1.0681003
1.0681003
1.0681003
1.0131343
1.0131343
1.0131343
1.0131343
1.0131343
1.0098408
1.0131343
1.0131343
1.0131343
1.0098408
1.0131343
1.0131343
1.0098408
1.0131343
1.0098408
1.0131343
1.0131343
1.0131343
1.0131343
1.0131343
)
;
    }
    back
    {
        type            calculated;
        value           nonuniform List<scalar> 0();
    }
    front
    {
        type            calculated;
        value           nonuniform List<scalar> 0();
    }
    bottom
    {
        type            calculated;
        value           nonuniform List<scalar> 
168
(
1.0609413
1.0564085
1.0174224
0.97456708
0.97456708
1.0609413
0.96400969
1.0609413
0.96400969
1.0278372
1.0278372
1.0278372
1.0278372
1.0174572
1.0595897
0.98943872
1.0174572
1.0667013
0.99714227
1.0595897
1.0667013
0.98943872
1.0807892
1.0612834
1.0612702
1.0612702
1.0612834
1.0907428
0.85776849
0.83909817
0.99578547
0.82281257
0.87858476
0.75280823
0.85776849
0.94241463
1.0531066
1.0807892
0.75280823
1.0213511
1.0531066
1.0612702
1.0612702
1.0907428
1.0667013
1.0019423
1.0019423
1.0039216
0.87858476
0.97456708
0.85776849
1.0510271
0.94241463
0.85776849
0.94275208
0.87858476
0.97079797
0.96507091
0.94241463
0.96400969
1.0213511
1.0039216
0.75280823
0.75280823
1.0609413
1.0174572
1.0174224
1.0564085
1.0564085
1.0564085
1.0174224
0.97456708
1.0510271
0.99578547
1.0595897
1.0174572
1.0609413
0.79356538
0.79273044
0.87901006
0.87901006
0.79273044
0.79273044
1.0578105
1.0578105
1.0595897
1.0019423
1.0019423
0.96400969
1.0510271
1.0510271
0.80902379
0.80902379
1.0807892
1.0807892
1.0531066
1.0612834
1.0807892
1.0807892
1.0531066
0.98943872
1.0174572
0.75280823
0.80902379
0.78688778
1.0612702
0.99714227
0.99714227
1.0667013
0.99714227
0.99714227
0.99714227
1.0578105
1.0907428
1.0612834
1.0667013
1.0907428
1.0578105
0.78688778
0.78688778
0.79356538
0.79356538
0.87901006
0.87901006
0.79273044
1.0907428
0.83909817
0.83909817
0.83909817
0.99578547
0.82281257
0.99578547
0.82281257
0.82281257
0.82281257
0.80902379
0.79356538
1.0213511
1.0213511
1.0213511
1.0612702
1.0612702
1.0907428
0.78688778
0.97079797
0.97079797
1.0039216
0.94241463
0.97079797
0.87858476
0.94275208
0.94275208
0.94275208
0.94241463
0.96507091
0.94241463
1.0278372
0.96507091
0.96507091
1.0039216
1.0213511
1.0213511
1.0174224
0.98943872
0.98943872
1.0019423
1.0019423
1.0019423
)
;
    }
    top
    {
        type            calculated;
        value           nonuniform List<scalar> 
109
(
1.0447495
1.0447495
1.0447495
1.044141
1.1170537
1.0447495
1.1170537
1.0864481
1.1170537
1.044141
1.0864481
1.1170537
1.0864481
1.044141
1.0864481
1.1170537
1.1170537
1.1170537
1.006747
1.006747
1.0447495
1.0447495
1.1170537
1.044141
1.1170537
1.044141
1.044141
1.044141
1.044141
1.044141
1.044141
1.1170537
1.044141
1.1170537
1.044141
1.044141
1.0864481
1.1170537
1.0447495
1.1170537
1.1170537
1.0447495
1.044141
1.044141
1.0447495
1.0447495
1.0447495
1.0864481
1.0447495
1.0447495
1.044141
1.044141
1.044141
1.1170537
1.1170537
1.1170537
1.044141
1.044141
1.044141
1.044141
1.044141
1.044141
1.1170537
1.0864481
1.0864481
1.0864481
1.0864481
1.0864481
1.0864481
1.044141
1.044141
1.0864481
1.0864481
1.0864481
1.0864481
1.0864481
1.0864481
1.0447495
1.0447495
1.0447495
1.0447495
1.0447495
1.0447495
1.0447495
1.0447495
1.044141
1.0864481
1.0864481
1.044141
1.044141
1.044141
1.044141
1.1170537
1.1170537
1.0864481
1.0864481
1.044141
1.1170537
1.1170537
1.1170537
1.1170537
1.1170537
1.1170537
1.044141
1.044141
1.044141
1.0447495
1.0447495
1.0864481
)
;
    }
    tower
    {
        type            calculated;
        value           nonuniform List<scalar> 
879
(
1.0010435
0.89025068
0.95994955
0.98511507
0.96755439
0.81375357
0.98671452
1.0050043
0.9130519
0.93454833
0.91772852
0.95265665
0.97876367
0.97908583
0.99209415
0.96030701
0.98010117
0.95459537
0.88271316
0.97332452
0.91764167
0.95923058
0.98273241
0.98523334
0.97129827
0.97636468
0.97753639
0.98616442
0.95815409
0.9614042
0.9816147
0.98589758
0.98572865
0.96898893
0.97793156
0.95020407
0.95976715
0.97847335
0.98000376
0.98663849
0.96091725
0.98243886
0.98137008
0.98502253
0.98566082
0.97078699
0.96865126
0.97606806
0.97756615
0.98606882
0.98645999
0.96996208
0.98726554
0.98799615
0.97823172
0.97969731
0.97142844
0.98330393
0.97062258
0.98454251
0.9895469
0.9729187
0.9834716
0.98964192
0.99049842
0.97409596
0.97096078
0.99369692
1.0012821
0.99535201
0.97360799
1.0156435
0.99813617
0.99942734
1.0118011
1.0121798
0.9984976
0.998642
0.99216476
0.99263685
0.99828025
0.99834301
0.99218663
0.9319978
0.94081232
0.9763332
0.9852513
0.97206765
0.85987744
0.95943817
0.96489814
0.98362664
0.98643571
0.98453388
0.9886445
0.97663717
0.97303426
0.98105279
0.97487714
0.94629445
0.98282492
0.98771844
0.98487597
0.96589147
0.95838887
0.95592515
0.96804424
0.96455449
0.9855332
0.98053587
0.98916142
0.9863401
1.000524
0.97488122
0.96698571
0.98230598
0.97920476
0.96587954
0.97170281
0.98577359
0.98327156
0.99142209
0.9866336
0.95500411
0.96369888
0.98340059
0.9802099
0.98426849
0.98614768
0.97269367
0.96628731
0.97445644
0.97893709
0.98509122
0.98644155
0.95790758
0.96420409
0.98093598
0.97081842
0.98331136
0.97659717
0.96526377
1.0106633
0.98170215
0.97711409
1.0045278
1.0068102
1.0335474
1.0021225
1.0144324
1.0366204
1.0390028
0.98333137
0.98884096
1.0077917
0.98088643
0.99600862
1.0062343
1.0112429
0.99972938
1.0313256
1.0040817
0.99708154
0.99974474
0.9837306
0.96052312
0.95441129
0.91986672
0.9397062
0.95804691
1.0014489
0.948603
0.91773394
0.95825861
0.9759097
0.89546246
0.88091985
0.89894477
0.90155099
0.91475025
0.91029488
0.91763784
0.9988209
0.9947017
0.98354623
0.99885808
0.98587378
0.97988633
0.9973011
0.99147347
0.9417203
1.0153676
0.96971198
0.92852854
1.0190508
0.92502986
1.025002
1.028207
0.89433766
0.89888229
0.90286374
1.0180714
1.0076847
0.98011718
0.95303023
0.99467672
0.98435957
0.98728552
0.98119237
0.98231294
0.92586447
0.96614172
0.97033094
0.95954897
0.97772363
0.98359187
0.95221253
0.94917934
0.90509872
0.93702638
0.92146908
0.98129892
0.96328569
1.0204987
1.0202219
0.98726373
0.98979784
0.93135478
0.92208919
0.9506941
0.9227036
0.99359277
0.96602893
0.94482322
0.97385125
0.93015728
0.943931
0.96077609
0.98007291
1.0137657
0.98593901
0.9969761
1.0224502
0.93710323
0.94628431
0.9968565
1.0011729
0.99278198
0.98005828
0.99302566
0.98977502
1.0141763
1.0051472
1.0100842
1.0208385
1.0037506
1.0106667
1.0176237
1.0237252
1.0126495
0.99865407
1.0015857
0.9971475
1.0298928
0.9455776
0.9664288
0.91111565
0.92601919
0.9726481
0.94810196
1.0116941
0.94386151
0.97204597
0.93412948
0.90453615
0.99124532
0.97977592
0.93988019
0.97485338
0.99192819
1.0055395
0.93653997
0.92763925
0.99948575
0.98889135
0.98050314
0.97179524
0.9520477
0.93013739
0.922439
0.99785177
0.97005316
0.97695835
0.94937585
0.94355127
1.0080272
0.92451536
0.9616388
0.96602987
0.90723854
1.017516
0.93130566
0.95635551
1.0380751
0.90790228
0.89739108
1.0216028
0.93659377
0.93582456
0.98833461
0.95977877
0.9872089
0.9892904
0.99182031
0.9997999
0.99207812
1.0028105
1.0021506
1.0083638
1.0467325
1.0436958
0.89271713
1.0355161
0.91689358
1.0165332
1.0198682
1.0276877
1.0321117
1.0158837
1.0184611
1.0098424
1.0113251
0.91122034
0.92690526
0.94222783
0.91287873
0.93116838
0.93948045
0.93573735
0.91814858
0.93629322
0.94858835
0.94043191
0.96374773
0.93524919
0.95689752
0.93369627
0.96679871
1.028217
1.0356622
1.0444423
1.0411632
0.98812243
0.88637043
0.98675142
0.89213197
0.99773521
0.90761957
0.99562376
0.91135773
0.99067436
0.90789021
0.99154698
0.90607059
1.0076697
0.90436264
1.0126476
0.89271715
1.036027
1.0340255
1.0262436
1.0289626
1.0328964
1.0312193
1.0264336
1.0195167
1.0236615
1.0216231
1.0177843
1.0169478
1.0205799
1.0180923
1.0145795
1.0083115
1.0103285
1.0068002
1.0042391
1.0051735
1.0061927
1.0028522
1.0005933
0.99514342
0.99008568
0.99048442
0.98909346
0.99160376
0.98318229
0.98615568
0.98505012
0.98032842
0.97633199
0.95740887
0.94726815
0.91345882
0.93334698
0.98052493
0.92399549
0.99596266
0.95045771
0.9596214
0.95165681
0.94499462
0.96181358
0.95790361
0.95480298
0.97808406
0.97900304
0.97472194
0.97269054
0.97609681
0.9879696
0.99730425
0.99037764
0.98380976
0.98521777
0.98499835
0.98662237
0.98646015
0.96706528
0.90201499
1.0024562
1.005
1.0093376
1.007395
1.0070497
0.93600676
0.99376002
0.99266125
0.99046467
0.98559467
0.9837158
0.98638061
0.99063655
0.98733174
0.98845711
0.92029828
0.9995131
0.9948984
0.95215411
0.94295769
0.96447901
0.98677196
0.99522903
0.99122728
1.0031896
0.99911251
0.97785095
0.98402985
0.90689552
0.91683508
0.95506926
0.94623125
1.0005719
0.99911787
0.99751762
1.0121632
1.0164664
1.0233144
1.02037
1.0131843
1.0161841
1.0274206
1.0246413
1.0119139
1.0341926
1.0065178
0.93389732
0.94177156
0.95700605
0.96205757
0.96155984
0.94901019
0.92052009
0.94105665
0.99365582
1.0018295
0.99374274
0.95707948
0.93306891
0.96462065
0.95269126
0.95272556
0.96531887
0.98608581
0.97456675
0.99191625
0.98175096
0.9647619
0.99158131
1.002947
0.99848142
0.99377881
0.99568354
0.98006515
0.98342066
0.98665715
0.99051858
1.0057893
1.0062024
1.0135195
1.0085132
1.0216184
1.0161035
1.0144569
1.015783
0.93783098
0.94019626
0.93000418
0.92712083
1.0085899
1.0055473
1.0021113
1.0036389
0.9537893
0.95547699
0.94850411
0.94657692
1.0111972
1.0129203
1.0115868
1.0079664
1.000306
0.99842475
0.99701776
0.98638787
0.98900581
0.99733306
0.99878278
0.99475864
0.99152575
1.0043735
1.0008758
1.0065505
1.0064509
0.98285718
0.92570125
0.98716543
0.98599268
0.92217672
0.991777
0.96649469
0.94526781
0.94341033
0.98773861
0.98863206
0.99644832
0.99933556
0.98930829
0.9562897
1.0023458
0.9527952
0.96225082
0.94861679
0.93974321
0.93454368
0.94602805
0.98144856
0.9828898
0.97954748
0.98374565
0.9857431
0.94598123
0.93773285
0.90911511
0.93164555
0.95050049
0.96080412
0.95501427
0.9638396
0.96029883
0.96885753
0.9718669
0.96500773
0.9370246
0.95339208
0.94790204
0.97360041
0.97829443
0.98453726
0.98566426
0.99310032
0.99187064
0.98540149
0.98599714
0.98606971
0.99166292
1.0008421
0.98911306
0.96756466
0.98450762
0.90369591
0.92923409
0.96098338
0.93778775
1.0034409
1.0123238
1.0105143
1.021973
1.0148542
1.0164219
1.0231371
0.96509871
0.98056908
0.96904212
0.98769925
0.98035017
0.98678459
0.98211004
0.99781183
1.0020364
0.95541854
0.96258457
1.0094485
0.98268633
0.96947005
0.96694228
0.9791494
0.98048475
1.0064537
0.96888695
0.97475823
0.99854692
0.97211846
0.93946183
0.98069257
1.0030357
0.95580368
0.92928412
0.91496316
0.9735917
0.98356357
1.0033068
0.93708954
1.0012972
0.93710296
0.98245877
0.94474047
0.90626068
0.8976153
0.94995113
0.94951273
1.0108121
0.91945129
0.9593194
1.0139502
0.91107674
0.96113214
1.0317544
0.91552814
1.0263186
0.92952373
0.94461313
0.97357758
0.99964555
0.98091849
1.0263808
0.92997523
0.93402464
0.94737487
0.93302589
0.95529296
0.96001338
0.95565797
0.95307952
1.0300436
1.0419898
0.9890981
0.98462172
1.0003691
0.99394204
0.98989703
0.99260913
1.0036347
1.0187952
1.0391014
1.0241504
1.0297852
1.0219152
1.0267143
1.0142145
1.0174015
1.0113303
1.0140263
1.0019286
1.00151
0.99858435
0.9961711
0.98795962
0.97541813
0.98420342
0.96681179
0.93647587
0.92513919
0.97776513
0.9811392
0.97674576
0.93047774
0.92891145
0.99081213
0.98488288
0.98800725
0.98502187
0.92737184
0.91828459
0.99919439
1.0068867
1.0016359
0.99887292
0.94698399
0.94872988
0.94143757
0.94691523
0.9704217
0.94582486
0.9821279
0.94148361
0.98886903
0.98781342
0.99989376
0.99672639
0.99004173
0.98962709
0.98098702
0.95878936
0.93907739
0.89118318
1.0028398
1.0100639
1.0091804
1.0030974
1.0062608
0.95598612
0.93184824
0.93848131
0.91395757
0.91621274
0.99695701
0.94867696
0.95394526
0.93931528
0.94079194
0.98285161
0.98686831
0.98511128
0.99476763
0.99357537
0.99082978
0.99226748
1.0068335
0.99727064
0.99319198
0.99463096
0.97090186
0.97390323
0.97898247
0.9896101
0.89785899
0.91170139
0.92039353
0.92700698
0.96329038
0.95360904
0.94593246
0.93685742
1.0008861
1.0130625
1.0248753
1.010084
1.0068395
1.0096568
1.0190636
1.0300086
1.019811
1.0170291
1.0218638
1.0106946
1.0179077
1.0322675
1.0252759
0.97182074
0.96586692
0.97165566
0.97728951
0.98049862
0.97670793
0.96727504
0.97345503
0.97230487
0.953285
0.97794501
0.9577993
0.95518602
0.93628583
0.95929566
1.0089734
1.0078877
0.95589019
0.97150828
0.97594244
0.98109518
0.98671873
0.97897343
0.97719429
0.99999354
0.9969366
0.98366832
0.98715075
1.0085089
1.0110908
1.0198146
1.0178779
0.95917596
0.93532798
0.94194091
0.94395142
0.94243406
0.98185153
0.98079931
0.98456332
0.98520084
0.93270865
0.93609055
0.93454216
0.92389882
1.0077019
1.0017311
0.95210151
0.95667695
0.95727514
0.95825348
0.96982818
0.96775882
0.95034495
0.95158825
0.94455639
0.94983865
0.97533915
0.9768147
0.98598071
0.98617782
1.0099408
1.0090721
1.0000659
0.98619113
0.99642151
0.99411031
1.0029791
1.0047982
0.98858082
0.98222195
0.98522149
1.0019294
0.99655093
0.99851747
1.0044408
1.0029112
1.0006182
0.97657086
0.97879061
0.97557046
0.95281077
0.95710439
0.95250333
0.94073968
0.94619621
0.94702152
1.0110769
1.0049433
1.0067366
)
;
    }
    air_to_vegetation
    {
        type            calculated;
        value           nonuniform List<scalar> 0();
    }
    procBoundary16to15
    {
        type            processor;
        value           uniform 0;
    }
    procBoundary16to17
    {
        type            processor;
        value           uniform 0;
    }
    procBoundary16to18
    {
        type            processor;
        value           uniform 0;
    }
    procBoundary16to19
    {
        type            processor;
        value           uniform 0;
    }
}


// ************************************************************************* //
