/*--------------------------------*- C++ -*----------------------------------*\
  =========                 |
  \\      /  F ield         | OpenFOAM: The Open Source CFD Toolbox
   \\    /   O peration     | Website:  https://openfoam.org
    \\  /    A nd           | Version:  8
     \\/     M anipulation  |
\*---------------------------------------------------------------------------*/
/*   Windows 32 and 64 bit porting by blueCAPE: http://www.bluecape.com.pt   *\
|  Based on Windows porting (2.0.x v4) by Symscape: http://www.symscape.com   |
\*---------------------------------------------------------------------------*/
FoamFile
{
    version     2.0;
    format      ascii;
    class       volScalarField;
    location    "0/vegetation";
    object      viewFactorField;
}
// * * * * * * * * * * * * * * * * * * * * * * * * * * * * * * * * * * * * * //

dimensions      [0 0 0 0 0 0 0];

internalField   uniform 0;

boundaryField
{
    left
    {
        type            calculated;
        value           nonuniform List<scalar> 
33
(
1.0857468
1.0857468
1.0857468
1.086113
1.086113
1.086113
1.0857468
1.086113
1.0857468
1.0857468
1.0857468
1.0857468
1.0857468
1.0857468
1.086113
1.086113
1.086113
1.086113
1.086113
1.086113
1.086113
1.0857468
1.0857468
1.0857468
1.0857468
1.0857468
1.0857468
1.0857468
1.0857468
1.0857468
1.0857468
1.0857468
1.0857468
)
;
    }
    right
    {
        type            calculated;
        value           nonuniform List<scalar> 0();
    }
    back
    {
        type            calculated;
        value           nonuniform List<scalar> 0();
    }
    front
    {
        type            calculated;
        value           nonuniform List<scalar> 
77
(
1.0246728
1.0028974
1.0028974
1.0028974
1.0246728
1.0028974
1.0246728
1.0246728
1.0246728
1.0028974
1.0246728
1.0028974
1.0246728
1.0246728
1.0028974
1.0246728
1.0246728
1.0246728
1.0028974
1.0028974
1.0246728
1.0246728
1.0246728
1.0028974
1.0028974
1.0028974
1.0028974
1.0028974
1.0028974
1.0246728
1.0246728
1.0246728
1.0246728
1.0246728
1.0246728
1.0246728
1.0246728
1.0246728
1.0028974
1.0028974
1.0028974
1.0246728
1.0028974
1.0028974
1.0028974
1.0028974
1.0028974
1.0246728
1.0246728
1.0246728
1.0028974
1.0246728
1.0246728
1.0028974
1.0028974
1.0028974
1.0246728
1.0246728
1.0246728
1.0246728
1.0246728
1.0246728
1.0246728
1.0246728
1.0246728
1.0028974
1.0028974
1.0028974
1.0246728
1.0246728
1.0246728
1.0028974
1.0028974
1.0028974
1.0028974
1.0028974
1.0028974
)
;
    }
    bottom
    {
        type            calculated;
        value           nonuniform List<scalar> 
100
(
1.1075616
1.03435
1.03435
1.1075616
1.0706251
1.0242469
1.0686042
1.013991
1.0242469
0.98273668
1.013991
1.0686042
1.0686042
1.0239379
1.0239379
1.021361
1.0252474
1.0239379
1.0725539
1.021361
1.0686042
1.0686042
1.1075616
1.0706251
1.0706251
0.98273668
1.0538325
1.0538325
1.1075616
1.0686042
1.013991
1.013991
1.013991
1.0706251
1.0586707
1.0252474
1.0242469
1.0242469
1.0242469
1.0239379
1.0239379
1.0686042
1.0313141
1.0725539
1.013991
1.021361
1.0725539
1.0252474
1.021361
1.013991
1.0133261
1.0133261
1.0276596
1.0586707
0.98658231
0.98658231
1.116626
1.0276596
1.03435
1.03435
1.03435
0.98273668
0.98273668
0.98273668
1.0538325
1.1567303
1.1567303
1.0252474
1.1567303
1.1567303
1.0313141
1.0133261
1.1434898
1.1434898
1.0276596
1.1589315
1.1589315
0.98658231
0.98658231
1.0276596
1.116626
1.116626
1.0538325
1.0538325
1.0538325
1.0586707
1.0586707
1.0586707
1.0725539
1.0313141
1.0133261
1.1434898
1.1434898
1.0586707
1.1589315
1.1589315
0.98658231
1.116626
1.116626
1.0313141
)
;
    }
    top
    {
        type            calculated;
        value           nonuniform List<scalar> 
50
(
1.0688762
1.0582921
1.0582921
1.0688762
1.0065691
1.008294
1.0789282
1.0688762
1.0789282
1.008294
1.0065691
1.0065691
1.008294
1.008294
1.0789282
1.0789282
1.0582921
1.008294
1.008294
1.0789282
1.0065691
1.0789282
1.008294
1.008294
1.008294
1.008294
1.0582921
1.0582921
1.0582921
1.0688762
1.0688762
1.0688762
1.0582921
1.0582921
1.0688762
1.0688762
1.0688762
1.0688762
1.0065691
1.0065691
1.008294
1.008294
1.008294
1.0789282
1.008294
1.0065691
1.0065691
1.0789282
1.008294
1.0789282
)
;
    }
    tower
    {
        type            calculated;
        value           nonuniform List<scalar> 
364
(
1.0218399
1.0237191
1.0262816
1.0293842
1.0119731
1.0095913
1.0114008
0.95079981
0.9501881
0.95136975
0.95600108
1.0136477
0.95562174
0.95637785
0.9547854
0.95748184
0.94925763
0.94927589
0.95837976
0.96057724
0.9608651
1.0182219
1.0323388
1.0148988
1.0075676
1.0369257
0.95172291
1.0563093
0.94980264
1.079582
0.95040031
0.95866183
0.96587392
0.96260976
0.96682043
0.96132937
0.97081253
0.97018497
0.95505634
0.96657308
0.96786889
0.96872369
0.95506985
0.96810387
1.0199504
1.0173255
1.0067556
1.0094795
0.99800899
0.99486951
1.0282769
1.0312075
1.0354935
1.0330319
0.95298289
1.0326437
1.050335
1.0626721
0.94949116
1.0554285
1.0699777
1.0765004
0.94967111
1.0671606
0.96790078
0.9698091
1.0388521
0.96182604
1.0393475
0.99711059
1.019858
0.99864758
1.0090163
1.0128075
1.0058978
1.0400009
0.9566413
0.9610709
0.9650424
0.9656779
0.99620902
1.0164853
0.99910987
0.95543816
0.96100905
0.96176646
0.95584546
0.97804445
0.97864464
1.0018307
1.009758
0.95518644
0.95595625
0.9634077
0.96269411
0.95907538
0.96257746
1.0199912
1.0181396
1.0260517
1.0293094
1.02806
1.0360766
1.0383193
1.0110709
1.0126794
1.0067946
1.005801
1.0454543
1.043887
0.95747606
0.96190993
0.96444054
0.96512275
0.96304945
0.96401149
0.97286715
0.97080818
0.97060772
0.97212826
0.95525006
0.96095997
0.96475049
0.96725282
0.96534132
0.96768024
0.96593008
0.96873917
0.95537175
0.96100012
1.0008649
1.0000372
1.0025333
1.003169
1.0071016
1.0386822
0.96739853
0.96557806
0.95997028
0.96379466
0.96859694
0.96545966
0.96869921
0.96874251
0.96942988
0.97159889
1.116001
1.116474
1.0151285
1.0171579
1.036646
1.0048149
1.0922625
1.0010855
1.0329074
1.0184197
1.0053691
1.116688
1.0105203
1.0078872
1.0220283
1.0151923
1.0063336
1.012967
1.0435248
0.99650091
1.0041792
0.998423
1.1136482
1.0122573
1.0092062
1.0243816
1.031204
1.0367547
1.0312446
1.0329316
1.0405858
1.0522484
1.0622579
1.0554424
1.0218428
1.0157158
1.0239503
1.0338276
1.0298487
1.0367245
1.0456286
1.0081613
1.0137543
1.006476
1.0025459
1.0426808
1.0329963
1.0536045
1.0480817
1.0494261
1.082786
1.0226383
1.019712
1.0174363
1.0147303
1.0039365
1.008534
1.0121274
1.0107488
1.001019
1.0021218
1.0002124
0.99133006
1.025412
1.0267456
1.0290583
1.0341328
1.0398208
1.0335996
1.0317758
1.0315967
1.0319087
1.044972
1.0446575
1.0681726
1.0486212
1.0599703
1.0728095
1.0604529
1.0727521
1.0581886
1.0638693
1.0145001
1.0135951
1.0111574
1.033763
0.96116893
1.0368602
1.0337057
1.0261774
1.0297611
1.0248302
1.0217032
1.0221525
1.0229389
1.0151351
1.0156794
1.0180786
1.0203139
0.99770088
1.1146673
0.99820329
1.1168008
1.0658169
1.017997
1.0160167
1.0160913
1.014961
1.0409463
1.0355525
0.96131521
1.1098572
0.99426977
1.0296661
1.0318329
1.0287305
1.0198016
1.0173408
1.0187241
1.1170579
0.99970264
0.96109307
0.96152254
1.0061579
0.99018003
0.99406612
0.9864086
1.1007755
1.0005349
1.0114414
1.0118176
0.95153414
0.94716198
0.95203621
0.96393892
0.96229766
0.9620527
0.95732482
1.0197612
1.022005
1.0177186
1.0162181
1.0260421
1.0239264
1.0314633
1.0314265
1.0280406
1.0300203
1.039828
1.0336078
1.0428726
1.0401036
1.0099613
1.0094548
1.0118325
1.0144761
1.0049608
1.0080748
1.004915
1.003672
1.0464729
1.0521907
1.0503163
1.0415785
0.9615676
0.96405694
0.96364269
0.97280037
0.972505
0.96107743
0.96513044
0.96532605
0.96586943
0.96125279
1.0148493
1.0129935
1.0139389
1.027036
1.023887
1.0261153
1.0212856
1.0219551
1.0202514
1.0014389
1.0043572
1.0034931
0.99826817
1.0019858
1.0059877
1.0066752
1.0040681
1.0053386
1.0104546
1.0343793
1.0370037
0.96574124
0.96340442
0.96571966
1.0151939
1.0133902
1.0140984
1.012081
1.012424
1.0131134
0.97007335
0.97107168
1.0307828
1.0267919
1.0277625
1.0243871
1.0229873
1.0251971
1.0164302
1.0170925
1.0178119
1.0210574
1.0185626
1.0193457
)
;
    }
    air_to_vegetation
    {
        type            calculated;
        value           nonuniform List<scalar> 0();
    }
    procBoundary14to11
    {
        type            processor;
        value           uniform 0;
    }
    procBoundary14to13
    {
        type            processor;
        value           uniform 0;
    }
    procBoundary14to16
    {
        type            processor;
        value           uniform 0;
    }
    procBoundary14to19
    {
        type            processor;
        value           uniform 0;
    }
}


// ************************************************************************* //
