/*--------------------------------*- C++ -*----------------------------------*\
  =========                 |
  \\      /  F ield         | OpenFOAM: The Open Source CFD Toolbox
   \\    /   O peration     | Website:  https://openfoam.org
    \\  /    A nd           | Version:  8
     \\/     M anipulation  |
\*---------------------------------------------------------------------------*/
/*   Windows 32 and 64 bit porting by blueCAPE: http://www.bluecape.com.pt   *\
|  Based on Windows porting (2.0.x v4) by Symscape: http://www.symscape.com   |
\*---------------------------------------------------------------------------*/
FoamFile
{
    version     2.0;
    format      ascii;
    class       volScalarField;
    location    "0/vegetation";
    object      viewFactorField;
}
// * * * * * * * * * * * * * * * * * * * * * * * * * * * * * * * * * * * * * //

dimensions      [0 0 0 0 0 0 0];

internalField   uniform 0;

boundaryField
{
    left
    {
        type            calculated;
        value           nonuniform List<scalar> 
26
(
1.0964936
1.0964936
1.0964936
1.0964936
1.0964936
1.0964936
1.0089106
1.0089106
1.0089106
1.0964936
1.0964936
1.0964936
1.0964936
1.0089106
1.0964936
1.0089106
1.0089106
1.0089106
1.0089106
1.0089106
1.0964936
1.0964936
1.0964936
1.0964936
1.0964936
1.0964936
)
;
    }
    right
    {
        type            calculated;
        value           nonuniform List<scalar> 0();
    }
    back
    {
        type            calculated;
        value           nonuniform List<scalar> 
28
(
1.093092
1.0277256
1.093092
1.0277256
1.0277256
1.0277256
1.0277256
1.0277256
1.093092
1.093092
1.093092
1.0277256
1.0277256
1.0277256
1.093092
1.093092
1.093092
1.0277256
1.093092
1.093092
1.093092
1.093092
1.0277256
1.0277256
1.0277256
1.0277256
1.0277256
1.0277256
)
;
    }
    front
    {
        type            calculated;
        value           nonuniform List<scalar> 0();
    }
    bottom
    {
        type            calculated;
        value           nonuniform List<scalar> 
191
(
1.0648646
1.0072793
1.0648646
1.0072793
1.0072793
1.1232507
1.0632249
1.0072793
1.0632249
1.0007911
1.0007911
0.9618466
1.0043579
0.98977581
0.9878446
1.0043579
0.98977581
1.0229051
1.0648646
1.0466781
1.0007911
0.99198128
1.050947
0.9618466
0.98977581
1.0043579
1.0095695
0.98170274
0.98283189
0.98977581
0.9618466
1.0007911
1.0466781
0.99198128
1.0039591
1.0095695
1.0043579
0.9878446
1.0229051
1.024906
0.97109279
0.97109279
0.94109773
0.94109773
1.0138906
1.0229051
1.0138906
0.9618466
0.98586517
0.95758587
0.98283189
0.98170274
1.024906
0.90557925
0.9426338
1.0624286
1.0624286
0.94109773
0.9426338
1.0229051
1.024906
0.97833553
0.97833553
0.9426338
0.95758587
0.95758587
1.0020064
0.30530175
0.37625876
1.0020064
0.97672954
1.0387043
0.90557925
1.0387043
0.97672954
0.97833553
0.97833553
0.9878446
0.97696171
0.97696171
0.97696171
1.0291078
1.0809553
1.024906
1.0809553
1.0809553
1.0020064
0.30530175
0.30530175
0.30530175
0.97833553
0.30530175
0.30530175
0.37625876
0.37625876
0.37625876
1.0020064
0.37625876
1.0809553
0.99198128
1.050947
0.98170274
1.0648646
1.0095695
1.0466781
0.99198128
1.050947
1.050947
1.0043579
0.97109279
0.94109773
1.0138906
1.0039591
1.0039591
1.0039591
0.98170274
1.050947
1.050947
0.97109279
1.0175094
1.0175094
1.0043579
1.0175094
0.97109279
1.0138906
1.0138906
0.98283189
1.0175094
1.0138906
1.0138906
0.9618466
1.0387043
0.90557925
1.0466781
1.0466781
1.0095695
0.94109773
0.94109773
1.0043579
1.0624286
1.0624286
0.9878446
1.0043579
0.97109279
0.94109773
0.94109773
1.0138906
0.87896594
0.87896594
1.0229051
1.0138906
0.98283189
0.95758587
0.9426338
1.0387043
0.97696171
0.90557925
1.0291078
1.0291078
0.9426338
0.9426338
0.97672954
0.97672954
0.97672954
1.0291078
1.0291078
0.97672954
1.1232507
1.0466781
1.1232507
1.0632249
1.0466781
1.1232507
1.050947
1.050947
1.0632249
1.0007911
1.0007911
1.0007911
1.0007911
1.0624286
1.0624286
0.9618466
0.95758587
0.9618466
0.87896594
0.87896594
1.0138906
0.98586517
0.98586517
0.98586517
)
;
    }
    top
    {
        type            calculated;
        value           nonuniform List<scalar> 
127
(
1.0612497
1.0625839
1.0612497
1.0400349
1.0625839
1.0612497
1.0427023
1.0612497
0.89082623
1.0427023
0.89082623
0.89082623
1.0400349
0.89082623
1.0625839
1.0400349
1.0400349
1.0625839
1.0427023
1.0427023
1.0400349
1.0612497
1.0612497
0.89082623
0.89082623
1.0427023
1.0427023
1.0427023
0.89082623
0.89082623
1.0427023
1.0427023
1.0427023
1.0612497
1.0400349
0.89082623
0.89082623
1.0625839
0.89082623
0.89082623
0.89082623
0.89082623
1.0400349
1.0625839
0.89082623
0.89082623
1.0400349
1.0400349
1.0625839
1.0625839
1.0625839
0.89082623
0.89082623
0.89082623
0.89082623
0.89082623
0.89082623
1.0427023
1.0427023
1.0400349
0.89082623
1.0400349
1.0400349
1.0400349
1.0400349
1.0427023
1.0427023
1.0427023
1.0427023
1.0612497
1.0612497
1.0612497
1.0625839
1.0625839
1.0625839
1.0427023
1.0427023
1.0427023
1.0427023
1.0427023
1.0625839
1.0427023
1.0427023
1.0400349
1.0400349
1.0400349
1.0612497
1.0612497
1.0612497
1.0612497
1.0612497
1.0427023
1.0612497
1.0612497
1.0612497
1.0427023
1.0427023
1.0427023
1.0427023
1.0427023
1.0612497
1.0612497
1.0400349
1.0400349
1.0612497
1.0612497
0.89082623
0.89082623
0.89082623
1.0400349
1.0400349
1.0400349
0.89082623
0.89082623
1.0625839
0.89082623
0.89082623
0.89082623
1.0400349
1.0400349
1.0400349
1.0625839
1.0625839
1.0625839
1.0625839
1.0625839
1.0625839
)
;
    }
    tower
    {
        type            calculated;
        value           nonuniform List<scalar> 
759
(
1.005813
1.0043479
0.96509173
1.0038359
1.0052514
1.004793
1.0044676
0.99984147
1.0016619
1.0035433
1.0037819
0.98129497
0.97843419
0.98369169
1.0040024
1.0054956
1.0019768
1.0049361
1.0012006
1.0033034
1.0033783
1.0055378
1.0040273
1.0051955
1.0027902
1.0027965
1.0019405
1.0041188
1.0023627
1.0023618
0.99524086
0.9952412
0.9949894
1.0011357
1.0026635
0.99750432
0.997314
1.0033836
1.0054953
1.0011667
1.0011079
1.0277002
1.0012211
1.000975
0.94767389
0.95996298
0.95587586
0.99374973
0.98728685
0.98573399
1.0036218
1.0027018
1.0003004
1.0036767
1.0036384
1.0032207
1.003229
1.0026835
1.00338
1.0033767
0.99237349
0.99173772
1.0001955
0.99912811
0.99898005
1.0036773
1.0010763
1.0010619
0.99994898
0.97359285
0.96952423
0.99963373
0.97666968
0.99564209
0.990117
0.98920339
1.00369
1.0032439
1.0017262
0.99133025
0.91116889
0.92840013
0.93151041
0.9657349
0.97516193
0.96357553
0.93698284
0.99674089
0.90912227
0.99885397
0.91555391
1.0096236
0.94704548
1.0193291
0.96400308
1.0123479
0.95288027
1.0032496
1.0172018
1.0052276
0.97596331
0.96933439
0.97512236
1.0214721
0.96658706
1.0029006
0.99778904
0.99218302
1.007465
0.96193631
0.9175669
0.93402436
0.95010281
0.96423918
0.96689299
0.95636435
0.9742708
0.99312235
0.99243546
0.9788715
0.98300166
1.0042425
1.0029809
1.002005
1.0042387
0.98396846
0.99487504
1.0011293
0.99710402
0.91765498
0.92004783
0.9707751
0.97207882
0.95507502
0.95137867
1.0014049
0.90315688
1.0036605
0.90131709
1.0151314
0.94237968
1.0107081
0.93067133
1.0052923
0.90774348
1.0094512
0.92575181
1.0169944
0.94545214
1.0236628
0.95279499
1.0333078
0.9593801
1.0260304
0.95473151
0.99758024
0.9959914
1.0035227
1.0011964
1.0010129
1.0001284
1.0030267
1.0136812
1.0050079
0.97830391
0.97784184
0.97764665
0.97543722
0.97165874
0.97461288
1.0415239
0.96471533
1.0355101
0.96062084
1.0406919
0.96377647
1.0161646
1.0345636
0.97045569
0.96621446
1.0049335
1.0151923
1.0097557
1.0076549
0.99472237
0.99096561
0.98780543
1.0052929
1.0023024
1.0046776
1.0068611
1.0047282
1.0034176
0.99860077
1.0013589
0.99721554
0.99703427
0.98638341
0.99513349
0.9979717
1.0044018
1.003223
1.0079253
0.93320908
0.90960491
0.9275442
1.0136695
1.0057631
1.0093138
0.94399982
0.93781782
0.9324556
1.0169922
1.0280856
1.0225906
0.96112319
0.96085437
0.95623747
1.0153219
1.0145418
1.0206208
0.94703503
0.95741295
0.95431598
1.0000924
1.0031665
0.99736725
1.0126401
1.0209062
1.0056843
1.0008341
1.0106996
1.0039996
0.97137073
0.97092548
0.97397535
0.97712952
0.97320957
0.97482596
1.0298464
1.02296
1.0338414
0.96210166
0.96967905
0.9652962
0.99525881
1.00341
1.0009247
0.99791388
0.99449222
1.0001186
0.95287505
0.95648681
0.94672554
0.92384113
0.93506741
0.94059919
0.94897486
0.92612102
0.94252084
0.96959332
0.96182806
0.96568806
0.9709815
0.97126657
0.99388315
0.9916926
0.9857655
0.99953227
0.99938535
1.0042578
1.0015466
1.004865
1.0057582
1.0023604
0.9395842
0.95303541
0.94487692
0.98834473
1.0063547
1.0077584
1.0068132
1.0097425
0.89797884
1.0107575
0.9042604
0.90601075
0.91414331
1.0123825
0.92280613
0.92416412
0.92024161
1.0130271
0.92778086
0.93504416
0.92911031
1.0175251
0.93961585
0.94089387
0.9389272
1.020089
0.94272099
0.9439851
0.94818735
1.0304694
0.95014261
0.95062363
0.95137331
1.034505
0.95209812
0.95332118
0.95645919
1.0463789
0.95677751
0.95799054
0.95800106
1.0497487
0.9580161
0.95923168
0.96174875
1.0579944
0.96110102
0.96236757
0.96279133
1.059456
0.96197997
0.96329024
0.96567774
0.98995711
0.99349305
0.96735522
0.9676315
0.97425641
0.9760889
0.96534615
0.96111176
0.94228728
0.94002742
1.0000199
1.0008473
0.91354732
0.92189418
0.9766713
0.97682514
0.99688231
0.99988386
0.99303769
0.99425298
0.91959973
0.92386344
0.93947678
0.9311848
0.96416403
0.9689807
0.96061745
0.9589349
1.0038398
1.0034241
1.0027954
1.003529
0.99198593
1.000101
0.99880113
0.96930132
0.97203622
0.97323366
0.97324332
0.95829713
0.95740873
0.94713461
0.9539393
0.89962647
1.0164652
1.0134718
1.0120411
1.0119479
1.0109249
1.0081843
1.0185797
1.0190556
1.0212916
1.0268444
1.0391607
1.0309506
1.0299718
1.0285066
0.99675115
0.99748853
0.9967786
0.9950532
1.0030032
1.0032183
0.99723754
0.99677994
1.0003915
1.0013402
1.0020138
1.0128779
1.0090881
1.00461
1.0067556
0.9787045
0.97893656
0.97729533
0.97852909
0.9780939
0.9769438
0.97620982
0.97599886
0.97236605
0.97274249
0.97520779
0.97372088
0.98682021
0.98006029
1.0494437
1.0397676
1.0420366
1.0375504
1.0484585
1.0391282
1.015735
1.0262243
1.0318291
1.0298974
1.006431
1.0123985
0.97121037
0.96913183
0.96712984
0.96770549
1.0066016
1.0063833
1.0133756
1.0127358
1.0114199
1.0078367
1.0061286
1.0087798
0.99553471
0.99646331
0.98837828
0.98966844
0.99262254
0.99572051
1.0027289
1.0054815
1.001486
1.0048769
1.0064696
1.0066354
0.92786734
0.93132444
0.91155451
0.91599715
0.92206533
0.92942462
0.9406092
0.94572302
0.93679984
0.93429717
0.95948351
0.96223156
0.95795276
0.95761966
0.94974518
0.94853501
0.95216139
0.95577969
0.96325585
0.96342749
0.96431598
0.96682386
0.99603711
0.99733434
1.0017925
1.0025712
0.99924377
1.0017374
0.99618078
0.99864067
0.99378084
0.99656346
0.99935564
0.99844665
0.9216797
0.9299001
0.92978493
0.93690439
0.9355682
0.93873861
0.94452348
0.9466795
0.9285566
0.93205895
0.94453696
0.93760338
0.91325258
0.9253984
0.93477103
0.90709704
0.97586774
0.97428145
0.95928964
0.96059717
0.96625184
0.96289517
0.97330426
0.97343944
0.91540258
0.92261788
0.9050989
1.0031454
1.0026943
1.0039245
1.0052158
1.0043071
1.0043899
1.0038797
1.0059922
0.99989713
0.99818839
1.0002518
1.0017627
0.99890253
0.99762928
1.0121151
1.0125712
1.0069422
1.0069602
1.0106628
1.0080942
0.9416881
0.93607251
1.0262346
1.024844
1.0242824
1.0199669
1.0169271
1.0138786
1.0187743
1.0186228
1.0000019
1.0008521
1.0034233
1.00176
0.99725207
1.0013937
1.0156532
1.0197585
1.0074278
1.009338
1.0012872
1.0016032
1.0025205
1.0080674
0.97204343
0.97018662
0.97305324
0.97331824
0.97652962
0.97638045
0.97562007
0.97414201
1.0313777
1.0261957
1.0254958
1.0217926
1.0325203
1.0287973
0.96829884
0.96896838
0.95628778
0.95074783
0.94869644
0.95005077
0.96802519
0.96854255
0.97221302
0.969954
1.0005992
1.0000529
1.0007848
1.002724
1.0059513
1.0040011
1.0031399
1.0034848
0.94325671
0.94135031
0.94310561
0.94834105
0.96883223
0.99605032
0.97991655
0.98167013
0.99043677
1.0032815
0.97777631
0.99662435
0.97861412
1.0089507
1.0114369
0.91095464
0.91247113
1.0119179
0.91720935
0.91861896
1.0140636
0.93219992
0.93350958
1.015517
0.93612582
0.93741894
1.0231704
0.94548568
0.94673714
1.02663
0.94794833
0.94918859
1.0386034
0.95384064
0.95505808
1.0426235
0.95539314
0.95660708
1.0529345
0.95913253
0.9603559
1.0557689
0.96015267
0.96139184
1.0609496
0.96288264
0.99766284
0.9642061
1.0002747
1.0074414
0.99228388
0.96911876
0.9752549
0.96305176
0.94533471
1.0020148
0.9199167
0.977473
0.99899104
0.99507487
0.92583613
0.93681319
0.96639694
0.96301552
0.97066962
0.97431095
0.96042453
0.9499388
1.014647
1.013159
1.0099712
1.0210731
1.0238507
1.0361748
1.0330506
0.99624573
0.99596777
0.99993605
1.0008871
1.0081865
1.0061535
0.97935567
0.97803941
0.97743396
0.97673739
0.97340847
0.97435002
1.0501774
1.0443724
1.0466041
1.0189674
1.023691
0.96993934
0.96856772
1.0079939
1.0110578
1.0095731
1.0095136
0.9944854
0.99103566
0.99352161
1.0038428
1.0033825
1.0051222
0.92592892
0.91794016
0.92398239
0.94248638
0.93899067
0.96084008
0.95937616
0.95126854
0.95357417
0.96474953
0.96590121
0.99814142
1.0008766
1.0000463
0.99697745
0.99583794
0.9977068
0.92783754
0.93169096
0.93360856
0.9420457
0.93435032
0.9397495
0.97501088
0.95762515
0.96504661
0.97240064
1.0035922
1.0043893
1.0048718
1.0044392
0.99971723
1.000639
0.99937484
1.010957
1.0082349
1.0095205
0.94033996
1.0232434
1.0216742
1.015458
1.0170033
1.0002715
1.0004654
1.0004532
1.01824
1.0149257
1.0021381
1.003744
0.97135355
0.97235182
0.97563735
0.97491605
1.0272026
1.0243226
1.0279901
0.96744752
0.95441883
0.95228223
0.9668417
0.97129244
1.0012456
1.0019377
1.0050977
1.0043353
0.94498852
0.94661007
)
;
    }
    air_to_vegetation
    {
        type            calculated;
        value           nonuniform List<scalar> 
165
(
0.99288537
0.99288537
0.88857189
0.88857189
0.88857189
0.88857189
0.88857189
0.88857189
0.88857189
0.99288537
1.0775236
1.0775236
0.99288537
1.0775236
1.0775236
1.0775236
0.99288537
0.99288537
1.0775236
1.0775236
0.88857189
1.0775236
0.88857189
0.88857189
0.88857189
1.0775236
0.99288537
1.0775236
1.0775236
0.99288537
1.0775236
1.0775236
0.99288537
1.0775236
0.99288537
0.99288537
1.0775236
1.0775236
1.0775236
1.0775236
1.0775236
1.0775236
1.0775236
1.0775236
1.0775236
0.88857189
0.88857189
0.88857189
0.88857189
0.88857189
0.88857189
0.88857189
0.88857189
0.88857189
1.0775236
1.0775236
0.99288537
0.99288537
1.0775236
0.88857189
1.0775236
0.99288537
0.99288537
0.99288537
0.99288537
0.99288537
1.0775236
1.0775236
0.99288537
0.99288537
0.99288537
0.88857189
0.88857189
1.0775236
1.0775236
0.88857189
0.88857189
0.88857189
1.0775236
1.0775236
1.0775236
0.99288537
0.99288537
0.99288537
0.99288537
0.99288537
1.0775236
1.0775236
0.99288537
0.99288537
1.0775236
1.0775236
0.88857189
1.0775236
0.88857189
1.0775236
1.0775236
1.0775236
1.0775236
1.0775236
1.0775236
1.0775236
1.0775236
1.0775236
1.0775236
0.99288537
1.0775236
0.88857189
1.0775236
1.0775236
1.0775236
1.0775236
1.0775236
1.0775236
0.99288537
1.0775236
1.0775236
1.0775236
1.0775236
0.88857189
0.99288537
0.99288537
0.88857189
0.88857189
1.0775236
0.88857189
1.0775236
1.0775236
1.0775236
0.88857189
0.88857189
1.0775236
0.88857189
1.0775236
1.0775236
1.0775236
0.88857189
0.88857189
0.88857189
1.0775236
0.99288537
1.0775236
1.0775236
1.0775236
0.99288537
0.99288537
0.99288537
1.0775236
1.0775236
1.0775236
1.0775236
1.0775236
1.0775236
1.0775236
1.0775236
0.88857189
0.88857189
0.88857189
0.88857189
0.88857189
0.88857189
1.0775236
1.0775236
1.0775236
1.0775236
)
;
    }
    procBoundary3to0
    {
        type            processor;
        value           uniform 0;
    }
    procBoundary3to1
    {
        type            processor;
        value           uniform 0;
    }
    procBoundary3to2
    {
        type            processor;
        value           uniform 0;
    }
    procBoundary3to4
    {
        type            processor;
        value           uniform 0;
    }
}


// ************************************************************************* //
