/*--------------------------------*- C++ -*----------------------------------*\
  =========                 |
  \\      /  F ield         | OpenFOAM: The Open Source CFD Toolbox
   \\    /   O peration     | Website:  https://openfoam.org
    \\  /    A nd           | Version:  8
     \\/     M anipulation  |
\*---------------------------------------------------------------------------*/
/*   Windows 32 and 64 bit porting by blueCAPE: http://www.bluecape.com.pt   *\
|  Based on Windows porting (2.0.x v4) by Symscape: http://www.symscape.com   |
\*---------------------------------------------------------------------------*/
FoamFile
{
    version     2.0;
    format      ascii;
    class       volScalarField;
    location    "0/vegetation";
    object      viewFactorField;
}
// * * * * * * * * * * * * * * * * * * * * * * * * * * * * * * * * * * * * * //

dimensions      [0 0 0 0 0 0 0];

internalField   uniform 0;

boundaryField
{
    left
    {
        type            calculated;
        value           nonuniform List<scalar> 0();
    }
    right
    {
        type            calculated;
        value           nonuniform List<scalar> 
42
(
0.95796038
0.95796038
0.95796038
0.95796038
1.0322079
0.95796038
0.95796038
1.0322079
1.0322079
1.0322079
0.95796038
0.95796038
0.95796038
0.95796038
0.95796038
0.95796038
1.0322079
1.0322079
1.0322079
1.0322079
1.0322079
1.0322079
1.0322079
1.0322079
0.95796038
0.95796038
0.95796038
0.95796038
0.95796038
0.95796038
1.0322079
1.0322079
0.95796038
1.0322079
1.0322079
1.0322079
0.95796038
0.95796038
0.95796038
0.95796038
0.95796038
0.95796038
)
;
    }
    back
    {
        type            calculated;
        value           nonuniform List<scalar> 0();
    }
    front
    {
        type            calculated;
        value           nonuniform List<scalar> 0();
    }
    bottom
    {
        type            calculated;
        value           nonuniform List<scalar> 
157
(
1.0663776
1.0902373
1.0528594
1.0528594
1.1030211
0.99090713
0.93225307
0.94808914
0.95738189
1.0121396
0.93455038
1.0663776
0.92200564
0.93225307
0.93225307
1.0825954
1.0902373
0.94330322
1.1030211
1.1030211
0.95738189
0.95637906
0.95637906
0.93047111
0.92200564
1.0528594
1.0825954
0.99566435
1.0355699
1.0355699
1.0190244
0.99090713
0.99090713
0.99090713
0.97207164
0.97207164
1.00895
0.94808914
0.94808914
0.94808914
1.0121396
1.0121396
1.0121396
0.93455038
0.93455038
0.93455038
0.92200564
1.0663776
0.92200564
0.93225307
1.0663776
0.93047111
0.99566435
1.0902373
0.93225307
1.0825954
1.0902373
1.0825954
0.94330322
0.94330322
0.94330322
1.1030211
1.1030211
1.1030211
1.0528594
1.0528594
1.0528594
0.95637906
1.0355699
1.0355699
0.95847885
0.95847885
0.95637906
0.93047111
1.024544
0.93047111
0.98485885
0.98485885
0.98485885
1.00877
1.0442848
1.0442848
0.99566435
0.99566435
1.00877
0.95738189
0.95738189
0.92021191
1.00895
1.00895
1.00895
0.97207164
0.97207164
1.024544
1.0666694
1.0666694
1.0666694
1.024544
1.024544
1.024544
1.070896
1.070896
1.070896
1.0693955
1.0693955
1.0693955
0.98485885
0.98485885
1.0666694
0.98485885
0.98485885
1.0693955
0.92021191
0.92021191
1.0664475
1.0664475
1.0664475
1.0733937
1.0733937
1.0733937
0.95847885
0.95847885
1.0664475
1.0190244
1.0190244
1.070896
1.0355699
1.0190244
1.0355699
0.95637906
0.95637906
1.0733937
1.0355699
1.0355699
1.0355699
1.0621877
1.0621877
1.0621877
1.1077507
1.1077507
1.0621877
1.00877
1.1661964
1.1661964
1.1077507
1.1077507
1.1077507
1.0987963
1.0987963
1.0987963
1.00877
1.1661964
1.1661964
1.0442848
1.0442848
1.0987963
0.92021191
)
;
    }
    top
    {
        type            calculated;
        value           nonuniform List<scalar> 8(1.0825403 1.0825403 1.067088 1.067088 1.0825403 1.0825403 1.0825403 1.0825403);
    }
    tower
    {
        type            calculated;
        value           nonuniform List<scalar> 
402
(
0.9978271
0.99561708
0.99834169
0.99481532
0.98361403
0.99339027
0.99502112
0.97830863
0.99794814
0.99553107
0.98339702
0.99342385
0.99732785
0.98687564
0.99433672
0.99436536
0.99674206
0.99695729
0.99861593
0.99843284
0.99863737
0.99843431
0.99715412
0.99638347
0.99656407
0.99641081
0.98794746
0.99116672
0.9975106
0.99721457
0.99783209
0.99815311
0.99721509
0.99796275
0.99607892
0.99626081
0.99720175
0.99634825
0.9875404
0.99088515
0.99630825
0.99611367
0.99647323
0.99642469
0.99003097
0.98983337
0.9925287
0.99537451
0.99544693
0.99236931
0.99439171
0.99559666
0.99539743
0.99455442
0.99441365
1.1369375
0.99420845
1.1370762
0.99419377
0.99493858
0.99517544
0.99396814
0.99459177
1.1373834
0.99473169
1.1372303
0.99505034
0.99584254
0.99612396
0.994778
0.9953931
1.1381364
0.99553773
1.1379643
0.99526664
0.99653943
0.99635757
0.99542358
0.99519107
1.1375595
0.99493533
1.1377772
0.99682683
0.99745245
0.99763586
0.99646554
0.99758201
1.1316715
1.0031517
1.1217454
0.9972023
0.99720277
0.99751252
0.99763729
0.99712349
1.1383576
0.99669259
1.1353142
0.99603962
0.99727785
0.99713945
0.99620513
0.99596382
1.138343
0.99573032
1.1385525
0.99585323
0.99674231
0.99562006
0.9969648
0.99616196
1.1388484
0.99635992
1.1387605
0.99321177
0.99452291
0.99410981
0.99362607
0.99266314
0.99285077
0.99356567
0.99193192
0.99434906
0.99486761
0.9939946
0.99516826
0.9946688
0.99562896
0.99496407
0.99541795
0.98828363
0.98740489
0.98931689
0.9862364
0.98984149
0.99194915
0.99101313
0.99080442
0.98031329
0.98500692
0.98362793
0.98201913
0.97607727
0.97377209
0.97830324
0.97076062
0.99375608
0.99465684
0.99467396
0.9937586
0.9940465
1.1368191
0.99407321
1.1367656
0.99378237
0.99477722
0.99382171
0.99471242
0.99402207
1.1359434
0.99403598
1.1365972
0.99366262
0.99467624
0.99442416
0.99383722
0.99044958
1.0718426
0.99856441
1.0743672
0.99205547
0.98785901
0.99293308
0.98337976
0.99371444
1.133052
0.99408143
1.1192676
0.94816048
0.94880222
0.9391265
0.95565387
0.95672226
0.96842625
0.96430698
0.96232847
0.99580509
0.60533953
0.99819402
0.99826428
0.99864525
0.9986246
0.9986831
0.99857136
0.99873007
0.99876872
0.9977609
0.998263
0.99815135
0.99852829
0.99881488
0.9987955
0.9988035
0.9988167
0.99538364
0.99564494
0.99596702
0.99573924
0.99658025
0.99639876
0.99634491
0.99655422
0.99622277
0.9962856
0.99602388
0.99645894
0.99597973
0.99621153
0.99584096
0.99612188
0.99518974
0.9949941
0.99521671
0.99528499
0.99544667
0.99524871
0.99509291
0.99481123
0.99505088
0.9943167
0.99498442
0.99448983
0.99186434
0.99407336
0.99417352
0.99484814
0.99677882
0.99700684
0.99701729
0.99677412
0.99756012
0.99726847
0.99728802
0.99758324
0.99696193
0.99655039
0.99670095
0.99683168
0.99724648
0.99745568
0.99755218
0.99713416
0.99862534
0.99844005
0.99846629
0.99866957
0.99786944
0.99817389
0.99819575
0.9978922
0.9984651
0.99865107
0.99868814
0.9984119
0.99818206
0.99778755
0.99811402
0.99786965
0.99496192
0.99389956
0.9927926
0.9940351
0.99022586
0.99231438
0.99109895
0.98895177
0.99219238
0.99329841
0.99353567
0.99193755
0.99045917
0.98817928
0.99023446
0.98832445
0.92167589
0.99783117
0.99531988
0.99206765
0.99394818
0.99392824
0.99661785
0.99691528
0.99734204
0.9970049
0.99737922
0.99717075
0.99761674
0.99786323
0.99634319
0.99610206
0.99639861
0.99670176
0.99559009
0.99584765
0.99610883
0.9958031
0.99808341
0.99796718
0.99844932
0.99854819
0.99862683
0.99872346
0.99873643
0.99859323
0.99758905
0.99780171
0.99828068
0.99807972
0.99506505
0.99466758
0.99506743
0.9954467
0.99540347
0.99604172
0.99575667
0.99569606
0.993455
0.99414058
0.99456298
0.99393131
0.98618778
0.98353861
0.98499838
0.98738371
0.97648914
0.98032035
0.98235858
0.97906158
0.98835542
0.99011546
0.99088395
0.98923749
0.99259506
0.99150718
0.99211435
0.99315824
0.99520105
0.99523969
0.99534596
0.99529107
0.99540199
0.99530213
0.995443
0.99558391
0.99503875
0.99429393
0.99497064
0.9944012
0.95668135
0.96196728
0.96766885
0.9632096
0.97209167
0.967199
0.97159712
0.97562648
0.97197408
0.97323495
0.96863698
0.97592357
0.99856745
0.99842788
0.99831298
0.99814463
0.99765325
0.99799811
0.99781978
0.99743668
0.99632923
0.99599845
0.99663432
0.99634496
0.9973019
0.99695926
0.99668709
0.99707206
0.97718583
0.97913407
0.98061773
0.98218177
0.98619431
0.98360068
0.98468468
0.98705949
0.99329259
0.99350059
0.9919779
0.99223762
0.98843752
0.99036101
0.99080557
0.9889963
)
;
    }
    air_to_vegetation
    {
        type            calculated;
        value           nonuniform List<scalar> 0();
    }
    procBoundary0to1
    {
        type            processor;
        value           uniform 0;
    }
    procBoundary0to3
    {
        type            processor;
        value           uniform 0;
    }
    procBoundary0to4
    {
        type            processor;
        value           uniform 0;
    }
}


// ************************************************************************* //
