/*--------------------------------*- C++ -*----------------------------------*\
  =========                 |
  \\      /  F ield         | OpenFOAM: The Open Source CFD Toolbox
   \\    /   O peration     | Website:  https://openfoam.org
    \\  /    A nd           | Version:  8
     \\/     M anipulation  |
\*---------------------------------------------------------------------------*/
/*   Windows 32 and 64 bit porting by blueCAPE: http://www.bluecape.com.pt   *\
|  Based on Windows porting (2.0.x v4) by Symscape: http://www.symscape.com   |
\*---------------------------------------------------------------------------*/
FoamFile
{
    version     2.0;
    format      ascii;
    class       volScalarField;
    location    "0/vegetation";
    object      viewFactorField;
}
// * * * * * * * * * * * * * * * * * * * * * * * * * * * * * * * * * * * * * //

dimensions      [0 0 0 0 0 0 0];

internalField   uniform 0;

boundaryField
{
    left
    {
        type            calculated;
        value           nonuniform List<scalar> 0();
    }
    right
    {
        type            calculated;
        value           nonuniform List<scalar> 0();
    }
    back
    {
        type            calculated;
        value           nonuniform List<scalar> 0();
    }
    front
    {
        type            calculated;
        value           nonuniform List<scalar> 0();
    }
    bottom
    {
        type            calculated;
        value           nonuniform List<scalar> 
228
(
1.3561628
1.2718776
1.3561628
1.4140023
1.4140023
1.4140023
1.3064621
1.3064621
1.2108491
1.1012829
1.3561628
1.1012829
1.327558
1.3220803
1.3786992
1.1198234
1.2160447
1.2718776
1.1610116
1.0911429
1.430479
1.3220803
1.2362035
1.1931578
1.1610116
1.1012829
1.1012829
1.3790003
1.327558
1.2072529
1.3786992
1.3786992
1.3790003
1.3589418
1.3589418
1.430479
1.3506432
1.3665617
1.354329
1.327558
1.327558
1.327558
1.3220803
1.3241185
1.2160447
1.2072529
1.2072529
1.1012829
1.3220803
1.3220803
1.3220803
1.1931578
1.1931578
1.2605899
1.0911429
1.3386129
1.3386129
1.1552564
1.3518119
1.4570833
1.2343423
1.3447856
1.3064621
1.3386129
1.3843885
1.4570833
1.1552564
1.2605899
1.1850327
1.2108491
1.2343423
1.3609826
1.3843885
1.3665617
1.3665617
1.3665617
1.3518119
1.3447856
1.3843885
1.2798968
1.4039902
1.3843885
1.3064621
1.2343423
1.1740576
1.2266315
1.3609826
1.3609826
1.3609826
1.3234013
1.4339212
1.4339212
1.2798968
1.1850327
1.2108491
1.3790003
1.3790003
1.3790003
1.354329
1.354329
1.354329
1.2718776
1.3561628
1.4083851
1.4083851
1.1012829
1.1012829
1.1198234
1.2160447
1.2160447
1.2160447
1.2718776
1.2718776
1.2718776
1.2362035
1.2362035
1.2362035
1.1610116
1.1931578
1.1931578
1.1610116
1.1198234
1.0911429
1.1012829
1.1198234
1.1198234
1.3241185
1.3241185
1.3790003
1.2072529
1.3241185
1.327558
1.3786992
1.3786992
1.3790003
1.3589418
1.3589418
1.3786992
1.3506432
1.3506432
1.3506432
1.3665617
1.3665617
1.3665617
1.3708446
1.3589418
1.3386129
1.1740576
1.1740576
1.2343423
1.2343423
1.3518119
1.3518119
1.3234013
1.3234013
1.3234013
1.4360837
1.3234013
1.3234013
1.0911429
1.1552564
1.1552564
1.2605899
1.1610116
1.2605899
1.1850327
1.1850327
1.1740576
1.3665617
1.3665617
1.3665617
1.4339212
1.4339212
1.3447856
1.2798968
1.2798968
1.3609826
1.2266315
1.2266315
1.2266315
1.1850327
1.1850327
1.2798968
1.1012829
1.1012829
1.3447856
1.2108491
1.3447856
1.4360837
1.3786992
1.4560319
1.4560319
1.430479
1.4560319
1.4560319
1.3708446
1.3708446
1.3708446
1.4570833
1.4570833
1.4039902
1.4360837
1.4360837
1.4333879
1.4083851
1.4083851
1.3931055
1.4140023
1.4140023
1.4140023
1.3931055
1.3931055
1.3931055
1.430479
1.430479
1.430479
1.4333879
1.4333879
1.4333879
1.3386129
1.3386129
1.3386129
1.3064621
1.3064621
1.3064621
1.4039902
1.4039902
1.4039902
)
;
    }
    top
    {
        type            calculated;
        value           nonuniform List<scalar> 0();
    }
    Building
    {
        type            calculated;
        value           nonuniform List<scalar> 
601
(
1.0013633
0.99917445
1.0032612
0.99882958
1.0499638
1.0107697
1.0179696
1.0227641
1.0171483
1.0136029
0.9939236
1.058278
0.99626463
1.059803
1.0386713
1.0476091
1.0387158
1.0469923
1.0414842
1.0399267
1.0389573
1.0406987
1.0441881
1.043447
1.0469205
1.0552528
1.042425
1.041345
1.0501503
1.055864
1.0479324
1.0519246
1.0446376
1.0442327
0.99495473
1.0591212
0.99292552
1.0579111
0.99453321
1.0586497
1.0574973
0.99416367
1.0405116
1.0420351
1.040757
1.0403139
1.018504
1.0383394
1.0390937
1.0190623
1.0188975
1.0382369
1.0452563
1.037529
1.0472932
1.0466337
1.0181228
1.018223
1.0387176
1.0480615
1.0458171
1.0417253
1.0419042
1.0381049
1.0408123
1.0392894
1.0419179
1.0418517
1.039494
1.0376089
1.0401971
1.0399115
1.0412165
1.0191708
1.0181538
1.0468127
1.0487281
1.0419468
1.0434528
1.0430446
1.0465153
1.044544
1.0424267
1.0467278
1.0427353
1.0562954
1.0533865
1.0191037
1.018844
1.0184485
1.0185226
1.0187645
1.0433251
1.0190012
1.0189141
1.0409615
1.0183458
1.0182702
1.0416772
1.0184228
1.0185011
1.0433134
1.0187445
1.0188286
1.0401366
1.0181958
1.0416706
1.0186619
1.0185808
1.0197088
1.0179433
1.0178428
1.017911
1.018051
1.0179804
1.0509898
1.0436731
1.0440611
1.0186344
1.0187723
1.018642
1.018264
1.0184024
1.0183806
1.0185188
1.0189329
1.0190629
1.0189151
1.0187849
1.0185455
1.0186937
1.0188099
1.0186618
1.051038
1.0550006
1.0514524
1.0467
1.0184364
1.0183362
1.0185848
1.0184846
1.0555838
1.0471723
1.0512631
1.0526088
1.0488876
1.0494139
1.0192331
1.0191334
1.0189625
1.0505062
1.0475993
1.0528591
1.0486088
1.0457617
1.0187384
1.0186384
1.0187976
1.0441011
1.0456776
1.0190491
1.0190134
1.018962
1.0456791
1.0189311
1.0187924
1.0188765
1.0431443
1.0183939
1.0183702
1.0183183
1.018171
1.0182986
1.018244
1.0428901
1.0442884
1.0184708
1.0186037
1.0185492
1.0442923
1.0187099
1.0186805
1.0186288
1.0195795
1.0195386
1.0194091
1.0193415
1.0194571
1.0192866
1.0190861
1.0192159
1.0193744
1.0192447
1.0190062
1.0188472
1.0189632
1.0191221
1.0181547
1.0182931
1.0181928
1.0180542
1.018014
1.0179593
1.0178911
1.0180992
1.0180808
1.0180286
1.018639
1.0185103
1.0187845
1.0186559
0.99823124
1.0001718
1.0011798
1.009175
1.1182226
1.002943
1.0048941
1.0097755
1.0318117
1.0289804
1.1384335
1.0314008
1.011479
1.0357474
1.0208566
1.0364967
1.0875363
1.0490825
0.99633047
1.0547054
1.2074155
0.98360831
1.0351191
1.0453205
1.0172479
1.0426846
1.0259277
1.0776134
1.0671731
1.0643878
0.97460816
1.0471443
1.0180965
1.026427
1.0238051
1.0101562
0.99991355
0.99957091
1.0035178
1.0062509
1.0058659
1.0029648
1.0011056
0.99796707
0.99929038
1.0058162
1.0159474
1.0075899
1.0855883
0.99765475
1.0622321
1.0291098
1.0439093
1.0295712
1.0220462
1.0965868
1.0914592
1.0234084
1.0098925
1.0065754
1.0004034
1.004698
1.0907825
1.0112542
1.0515864
1.199396
0.94499302
0.98950789
0.96403125
1.0868851
1.0629221
1.0461959
1.0807916
1.0188005
1.0058183
1.0703034
1.0304852
1.0874313
1.0847645
1.0289225
1.0236539
0.99634398
1.0876211
0.99539953
1.0398017
1.0047234
0.98543897
1.0106393
1.0153924
1.0494156
1.074749
0.92998706
0.934699
1.0346656
1.0321203
1.0444037
1.0778078
0.9187304
1.0076788
1.0300159
1.0233238
1.0297309
1.0279583
1.0174699
1.0425004
1.0164277
1.0265314
1.0285866
0.99894494
1.0136837
1.046322
1.0514801
1.0173942
1.008725
1.0019473
0.99626045
1.0106495
1.0089367
1.0081588
1.0207074
1.0119618
0.99384769
1.0059119
1.0124498
0.99871423
1.0106806
1.0070674
1.0145764
1.017186
1.0142114
1.0222717
1.0128291
1.0411284
1.0777804
1.0649997
0.98233745
1.0310985
1.0503352
1.0404041
1.0390872
1.0420917
1.0287609
1.0297956
1.01276
1.0155645
1.0208826
1.0235699
1.0040298
1.0327226
1.0129383
1.0322344
1.026621
1.0532345
1.0378241
0.950777
0.99873527
0.99479875
0.99861498
1.0609583
1.0608094
1.0578452
0.99352064
1.0586876
0.99911045
0.99458038
0.99948141
1.0613042
1.0617052
1.0606989
0.99829993
1.0618322
1.0180363
1.0178977
1.0172039
1.0173131
1.0177555
1.0170938
1.0171508
1.0181491
1.0182951
1.0181825
1.0182655
1.0185317
1.0184115
1.017263
1.0171472
1.0172042
1.0174161
1.0180106
1.0178795
1.0177665
1.0176384
1.0175252
1.0176424
1.0450292
1.0361605
1.0354774
1.037698
1.0465068
1.0350117
1.0433949
1.0441961
1.0343793
1.0358531
1.0371413
1.0405404
1.0355504
1.0380288
1.044876
1.0432011
1.0440329
1.0407784
1.0364388
1.0378309
1.0433216
1.0439957
1.0169943
1.034737
1.0379742
1.0374519
1.0384724
1.0352454
1.0422705
1.040349
1.0425398
1.0410802
1.0445218
1.0462868
1.0450912
1.0449479
1.0387007
1.0553758
1.0174379
1.0173368
1.03852
1.0173964
1.0372804
1.0545294
1.0175285
1.0171565
1.0173815
1.0172094
1.0172782
1.0385196
1.0172206
1.0400306
1.0170533
1.0169993
1.0383947
1.0171081
1.0171639
1.0498443
1.0554647
1.0414267
1.0410572
1.0173853
1.0174996
1.0174449
1.0499338
1.0450216
1.0515355
1.04917
1.0448183
1.0174276
1.0174152
1.0173143
1.0420067
1.0171018
1.0171004
1.0170477
1.0401647
1.0414386
1.0173268
1.0173218
1.0172691
1.0411332
1.0171567
1.0172672
1.0172125
1.0171506
1.0172024
1.0169416
1.0169932
1.0169903
1.0372806
1.0168419
1.0167925
1.0402269
1.0168936
1.0169461
1.0376612
1.0167378
1.0398678
1.0168329
1.016787
1.0170384
1.0169847
1.0168819
1.0169326
1.0170947
1.0170918
1.017038
1.017097
1.0173058
1.0172045
1.040223
1.0168886
1.0168847
1.0168373
1.0416767
1.0169413
1.0170488
1.0170441
1.0169345
1.0169857
1.048433
1.053601
1.049176
1.0183859
1.0182477
1.0181303
1.0181272
1.0179963
1.0181169
1.0388127
1.0481307
1.0389791
1.0480242
1.0385431
1.0477467
1.0414322
1.0393556
1.0389944
1.0416276
1.0354378
1.0416625
1.0441659
1.0480267
1.0444641
1.0443324
1.0454628
1.0175447
1.0178724
1.0177553
1.0178762
1.0179931
1.018247
1.0180011
1.0181179
1.0176456
1.0178788
1.0176821
1.0176218
1.0420463
1.0177758
1.0177098
1.0416944
1.0175813
1.017645
1.0384283
1.0175186
1.017457
1.0573205
1.0526021
1.056577
1.0479316
1.0526124
1.0180209
1.0178915
1.0179203
1.0177908
1.0501553
1.0177665
1.0176657
1.0445988
1.0178241
1.0178105
1.0177582
1.0176297
1.0177481
1.0176934
1.0444951
1.0175671
1.017558
1.0175055
1.0411879
1.0185011
1.0183722
1.0183705
1.0182416
)
;
    }
    air_to_vegetation
    {
        type            calculated;
        value           nonuniform List<scalar> 
132
(
1.0118503
1.627345
1.5440768
1.0384777
1.627345
1.3950559
1.4441766
1.5440768
1.2428414
1.3950559
1.2875943
1.3950559
1.2568572
1.0944767
1.0944767
1.5440768
1.0334613
1.0944767
1.2568572
1.3950559
1.0334613
1.2568572
1.459901
1.4188826
1.459901
1.7880431
1.4186295
1.2507674
1.4188826
1.4188826
1.2550718
1.7880431
1.7880431
1.2550718
1.459901
1.1349626
1.2191867
1.1091072
1.2191867
1.0271911
1.0271911
1.0441688
1.4186295
1.1091072
1.0441688
1.4186295
1.6830938
1.6830938
1.6830938
1.7880431
1.1696391
0.98031186
1.0118503
0.98031186
1.4441766
1.4441766
1.0467941
1.0573784
1.0944767
1.4441766
1.4441766
1.0118503
1.0118503
1.0573784
1.0573784
1.0118503
1.0573784
1.2428414
1.2428414
0.98031186
1.1696391
0.98031186
1.1696391
1.4441766
1.0467941
1.0334613
1.627345
1.627345
1.0384777
1.2875943
1.1696391
1.0384777
1.0384777
1.2875943
1.2875943
1.2428414
1.5440768
1.0573784
1.2568572
1.2875943
1.5440768
1.0334613
1.0467941
1.0467941
1.2875943
1.2677387
1.2677387
1.0271911
1.0271911
1.459901
1.6830938
1.2677387
0.91206752
0.91206752
0.91206752
1.4188826
1.2677387
1.2550718
1.2550718
1.1349626
1.2191867
1.1349626
1.2191867
1.1349626
1.1091072
1.1091072
1.4186295
1.4186295
1.4186295
1.4186295
1.7880431
1.7880431
1.7880431
1.0441688
1.0441688
1.2677387
1.0441688
1.4188826
1.2507674
0.91206752
1.2507674
1.2507674
)
;
    }
    procBoundary0to1
    {
        type            processor;
        value           uniform 0;
    }
    procBoundary0to2
    {
        type            processor;
        value           uniform 0;
    }
    procBoundary0to3
    {
        type            processor;
        value           uniform 0;
    }
    procBoundary0to4
    {
        type            processor;
        value           uniform 0;
    }
    procBoundary0to5
    {
        type            processor;
        value           uniform 0;
    }
    procBoundary0to6
    {
        type            processor;
        value           uniform 0;
    }
    procBoundary0to8
    {
        type            processor;
        value           uniform 0;
    }
    procBoundary0to9
    {
        type            processor;
        value           uniform 0;
    }
    procBoundary0to10
    {
        type            processor;
        value           uniform 0;
    }
    procBoundary0to11
    {
        type            processor;
        value           uniform 0;
    }
}


// ************************************************************************* //
