/*--------------------------------*- C++ -*----------------------------------*\
  =========                 |
  \\      /  F ield         | OpenFOAM: The Open Source CFD Toolbox
   \\    /   O peration     | Website:  https://openfoam.org
    \\  /    A nd           | Version:  8
     \\/     M anipulation  |
\*---------------------------------------------------------------------------*/
/*   Windows 32 and 64 bit porting by blueCAPE: http://www.bluecape.com.pt   *\
|  Based on Windows porting (2.0.x v4) by Symscape: http://www.symscape.com   |
\*---------------------------------------------------------------------------*/
FoamFile
{
    version     2.0;
    format      ascii;
    class       volScalarField;
    location    "0/vegetation";
    object      viewFactorField;
}
// * * * * * * * * * * * * * * * * * * * * * * * * * * * * * * * * * * * * * //

dimensions      [0 0 0 0 0 0 0];

internalField   uniform 0;

boundaryField
{
    left
    {
        type            calculated;
        value           nonuniform List<scalar> 0();
    }
    right
    {
        type            calculated;
        value           nonuniform List<scalar> 0();
    }
    back
    {
        type            calculated;
        value           nonuniform List<scalar> 0();
    }
    front
    {
        type            calculated;
        value           nonuniform List<scalar> 0();
    }
    bottom
    {
        type            calculated;
        value           nonuniform List<scalar> 
242
(
1.2268019
0.76075849
0.76075849
1.2268019
1.0533008
1.0032523
1.0148299
0.93002006
1.0724442
0.93220169
0.87901829
0.52883867
0.87125283
0.52883867
1.0337759
1.0724442
0.99587173
1.0032523
1.0724442
0.94508992
1.0148299
0.99587173
0.93110445
1.0408481
0.95446307
0.95230729
1.1126227
1.0926975
1.0401199
1.0549276
1.1432427
1.1432427
1.2268019
0.98559188
0.74728453
0.74728453
0.94508992
0.94508992
0.98559188
0.74728453
0.95293852
1.0337759
0.95293852
0.74728453
1.0337759
1.0926975
1.0606004
0.99760509
1.0190104
0.95293852
1.2827104
1.1246986
1.1246986
0.92865847
0.92865847
0.92865847
0.76075849
0.76075849
0.76075849
1.1246986
1.1246986
1.2268019
0.9501658
0.29098035
0.52883867
0.92215334
0.92215334
0.88083704
0.70934336
1.1126227
0.99587173
1.0926975
1.0408481
1.0148299
0.99587173
0.99587173
0.99587173
0.99587173
1.0926975
1.0926975
1.1126227
1.2268019
0.99760509
0.99760509
1.0165741
0.88083704
0.90647381
0.90647381
0.8590903
0.70934336
0.44799687
1.082857
1.093446
0.87623528
1.0606004
1.093446
1.0337759
0.94260274
0.8590903
0.99760509
0.87901829
0.87901829
0.87901829
0.52883867
0.52883867
0.52883867
1.2827104
1.2827104
1.0165741
0.98559188
0.48608167
0.48608167
0.48608167
0.48608167
0.95293852
0.9501658
0.9501658
0.9501658
0.29098035
0.9501658
0.29098035
0.29098035
0.29098035
0.52883867
0.58434724
1.2827104
1.2827104
0.70934336
1.2827104
0.58434724
1.1126227
1.2827104
0.70934336
0.9501658
1.0165741
1.0165741
0.9501658
0.58434724
0.58434724
0.58434724
0.44799687
0.44799687
0.44799687
0.76075849
0.92865847
0.92865847
1.0533008
1.0533008
1.0533008
1.0032523
0.93002006
0.93002006
0.93002006
1.0724442
1.0724442
1.0724442
0.93220169
0.93220169
0.93220169
0.87125283
0.87125283
0.87125283
0.94260274
1.0408481
1.0926975
1.0724442
1.0032523
0.93110445
1.0148299
1.0724442
0.93110445
0.93110445
0.92865847
0.94508992
0.94508992
1.0408481
1.0408481
1.0408481
0.95446307
0.95446307
0.95446307
0.95230729
0.95230729
0.95230729
1.0401199
1.0401199
1.0401199
1.0549276
1.0549276
1.0549276
1.1432427
1.0190104
1.0401199
1.0190104
1.0190104
1.1432427
0.94508992
0.92215334
0.92215334
0.90647381
0.90647381
0.94508992
0.98559188
0.98559188
0.98559188
0.87623528
0.94260274
0.94260274
0.87623528
0.74728453
1.0190104
0.87125283
0.87125283
0.88083704
0.88083704
0.98559188
1.0165741
0.58434724
0.58434724
0.8590903
1.082857
1.082857
1.093446
0.87623528
1.082857
1.082857
1.0606004
1.0337759
1.0606004
1.0337759
1.0337759
1.093446
0.8590903
0.87623528
0.87623528
0.93110445
0.93110445
0.93110445
0.94260274
0.94260274
0.94260274
0.95293852
)
;
    }
    top
    {
        type            calculated;
        value           uniform 0.9991784;
    }
    tower
    {
        type            calculated;
        value           nonuniform List<scalar> 
297
(
0.95584792
0.98389729
0.96908714
0.97469206
0.97369638
0.9723522
0.98449074
0.98542265
0.99460639
0.96167488
0.96493954
0.98892085
0.98780647
0.96252102
0.9843675
0.98646259
0.98855958
0.99089629
0.97068323
0.980306
0.95899307
0.97736733
0.93605797
0.95836189
0.95937521
0.94451582
0.97024911
0.99166163
0.9808734
0.99832438
0.98995659
0.96249993
0.98239829
0.9573357
0.9537048
1.0121084
0.98040706
0.95170236
0.99326691
0.98675599
0.96668995
0.99725243
0.93340693
0.94170636
0.92644491
0.78247246
0.78911276
0.77535019
0.80989138
0.80519826
0.85946052
0.76533807
0.93875763
0.98911652
0.6494251
0.68366641
0.87231803
0.90902914
0.95449249
0.93388148
0.73983035
0.74918039
0.75616801
0.72062882
0.67685464
0.73313723
0.70257276
0.68905011
0.66456674
0.68167059
0.66150624
0.69436837
0.92560416
0.91453405
0.89821588
0.90272718
0.74486265
0.73911802
0.6653357
0.71697861
0.69890333
0.71160138
0.75829441
0.75999121
0.68232056
0.70663445
0.70564457
0.69116115
0.74496809
0.78618847
0.75619732
0.74865083
0.67099517
0.66660842
0.65979015
0.69077369
0.70477258
0.66029784
0.68375416
0.73086434
0.92630828
0.93130511
1.0107578
0.95736066
0.96939259
0.92657455
1.0232577
0.93403093
0.9921667
0.93416544
0.97433464
0.99917368
0.97760361
0.95643661
0.98448337
0.97248285
0.97302339
0.95174944
0.9756139
0.95500299
0.95537813
0.93342834
0.95426585
0.94067935
0.95697293
0.94242189
0.9615021
0.94103817
0.98499704
0.98005892
0.96173029
0.98277916
0.93782987
0.9700931
0.94283822
0.95173443
0.7449109
0.91975453
0.74880011
0.74515222
0.96033056
0.98951558
0.94763304
0.97160374
0.93251188
0.91068636
0.66163108
0.60879404
0.6389828
0.68096481
0.6802511
0.67194081
0.68893874
0.66514416
0.90944354
0.90149349
0.93098043
0.93245988
0.9212993
0.91859221
0.92641028
0.93988117
0.9329028
0.91815183
0.91236854
0.93426315
0.9170313
0.92691506
0.92203624
0.92342728
0.92308871
0.90779821
0.93629969
0.93444956
0.90047816
0.92249948
0.90408139
0.89217568
0.88590255
0.84973334
0.87070832
0.87225412
0.76400247
0.81277813
0.7979154
0.76756359
0.73511552
0.70303983
0.70951738
0.71922573
0.84986318
0.84301642
0.87510637
0.82822988
0.96428245
0.8949258
0.9380269
0.92837555
0.94862954
0.92247671
0.93107255
0.91470569
0.92485171
0.9105826
0.9046822
0.91746008
0.92449653
0.76512479
0.75048439
0.77626509
0.79945328
0.88406826
0.89963368
0.94901607
0.95268025
0.94161444
0.93972553
0.93670282
0.94158285
0.93239491
0.92201501
0.94530871
0.94082986
0.95015175
0.94082357
0.97980418
0.98247521
0.96426924
0.95535659
0.96091273
0.98273512
0.96741369
0.95050637
0.95166265
0.77595624
0.94394171
0.92585031
0.94104908
0.97164991
0.94536482
0.92815732
0.6613911
0.64813317
0.63256256
0.6270168
0.63370762
0.61526758
0.63425258
0.6111527
0.84139517
0.86703855
0.8487066
0.86830226
0.82816661
0.85093161
0.81814589
0.83881574
0.85664128
0.8905485
0.89027624
0.88132273
0.93390605
0.91673882
0.92737284
0.94706256
0.92738769
0.89972989
0.91950452
0.90849893
0.81129611
0.78695851
0.81010952
0.80134308
0.70550565
0.72608616
0.79872127
0.78966649
0.82017935
0.81313207
0.80870827
0.81317238
0.96177512
0.95630562
0.95470573
0.9156333
0.92781342
0.92893701
0.90544754
0.90498054
0.91657514
0.92161293
0.91911118
0.93400889
0.91943384
0.93559685
0.92258164
0.90641532
)
;
    }
    air_to_vegetation
    {
        type            calculated;
        value           nonuniform List<scalar> 
651
(
0.96035797
1.0946149
1.0946149
0.99548217
0.99548217
0.82799658
1.144592
0.99548217
1.0946149
1.0946149
0.99548217
0.99548217
0.99548217
1.144592
1.1582824
1.144592
1.1582824
1.0946149
1.0946149
1.0946149
1.1625592
0.82799658
1.0946149
0.96035797
0.96035797
1.0946149
1.0946149
1.0946149
0.82799658
0.8843613
0.87787748
1.0946149
1.0946149
1.1625592
0.82799658
0.82799658
0.82799658
0.99548217
0.96035797
0.96035797
0.8843613
0.96035797
0.99548217
0.96035797
1.1625592
1.144592
1.144592
1.144592
1.0946149
1.0946149
1.0946149
1.0946149
1.0946149
0.82799658
1.144592
0.8843613
1.0601178
0.87787748
0.8843613
0.87787748
1.0470175
0.87787748
0.87787748
0.87787748
0.87787748
0.87787748
1.0946149
1.0470175
1.0470175
0.82799658
0.99548217
0.99548217
0.99548217
0.99548217
1.0946149
1.1582824
1.0470175
1.0470175
0.99548217
0.99548217
0.99548217
0.99548217
0.99548217
0.99548217
1.144592
1.144592
1.144592
1.144592
1.144592
1.144592
1.1582824
1.0946149
1.0946149
1.0946149
1.0946149
1.0946149
1.0946149
0.8843613
0.8843613
0.8843613
0.96035797
0.96035797
1.0946149
1.0946149
1.0946149
0.8843613
1.0347494
1.0347494
1.0347494
1.0347494
0.87787748
1.0470175
1.0946149
1.0946149
1.0946149
1.0946149
1.0946149
1.0946149
0.82799658
1.1625592
1.1625592
1.1625592
1.1625592
0.8843613
0.8843613
0.8843613
0.8843613
0.96035797
0.96035797
0.8843613
0.99548217
0.87787748
0.87787748
0.87787748
0.87787748
1.0946149
1.0946149
1.0946149
1.0946149
1.1625592
0.82799658
1.1625592
1.1625592
0.82799658
0.82799658
0.82799658
0.82799658
0.82799658
0.82799658
0.82799658
0.82799658
1.1582824
1.1582824
1.1582824
1.1625592
1.1625592
1.1625592
1.1582824
1.1582824
1.1582824
0.8843613
0.8843613
0.8843613
0.8843613
0.8843613
1.1625592
1.1625592
1.1625592
1.0347494
1.1625592
1.1625592
1.0347494
1.0347494
1.0347494
1.0347494
1.0347494
1.0347494
1.0347494
1.0347494
1.0347494
1.0347494
1.0347494
1.0347494
1.0347494
1.0601178
1.0601178
1.0601178
1.0601178
0.87787748
0.87787748
0.87787748
0.99548217
0.87787748
0.87787748
0.87787748
0.87787748
0.87787748
0.87787748
0.87787748
0.87787748
0.87787748
0.87787748
1.0470175
1.0470175
0.99548217
0.99548217
0.87787748
0.99548217
0.99548217
0.87787748
0.87787748
0.87787748
0.87787748
0.87787748
0.87787748
0.87787748
0.87787748
0.87787748
0.87787748
0.87787748
0.87787748
1.0601178
1.0601178
1.0470175
1.0601178
1.0470175
1.0470175
1.0470175
1.0470175
1.0470175
1.0470175
1.0470175
1.0470175
1.0470175
1.0470175
1.0470175
1.0470175
1.0470175
1.0470175
1.0470175
1.0470175
1.0470175
1.0470175
1.0470175
1.0470175
1.0470175
1.0946149
1.0946149
1.0470175
1.144592
1.144592
0.82799658
0.82799658
1.0601178
1.0601178
0.82799658
0.82799658
0.82799658
0.82799658
1.0601178
1.0601178
1.0601178
1.0601178
1.0601178
1.0601178
1.0601178
0.82799658
1.0601178
0.96035797
0.96035797
0.96035797
1.144592
1.1625592
1.1582824
1.1582824
1.0470175
1.1582824
1.144592
1.144592
1.1582824
1.1625592
1.1582824
1.1582824
1.1582824
1.1625592
1.1625592
1.1625592
0.96035797
0.96035797
0.96035797
0.96035797
0.96035797
1.0946149
1.144592
0.82799658
0.82799658
0.99548217
0.8843613
0.8843613
1.1625592
1.0470175
1.0946149
1.0601178
1.1625592
0.82799658
0.82799658
0.82799658
0.99548217
0.99548217
0.99548217
0.99548217
0.99548217
0.99548217
0.99548217
0.99548217
0.99548217
0.99548217
1.0347494
1.1625592
1.1582824
1.1625592
1.0347494
1.0347494
1.1625592
0.99548217
0.99548217
0.99548217
1.0946149
1.0946149
1.0946149
1.0946149
1.0946149
0.99548217
0.96035797
0.99548217
0.96035797
0.96035797
0.96035797
0.96035797
0.96035797
1.144592
1.144592
1.144592
1.144592
1.1625592
0.82799658
1.144592
1.1625592
1.1625592
1.1625592
1.144592
1.144592
1.0946149
1.0946149
1.0946149
1.0946149
1.0946149
1.144592
1.144592
1.0347494
1.1625592
1.0347494
1.0347494
1.0347494
1.0347494
1.0347494
1.0347494
1.0601178
0.99548217
0.8843613
1.0946149
1.0470175
1.0470175
1.0470175
1.0470175
1.0470175
1.0470175
1.0470175
1.0470175
0.82799658
0.82799658
0.82799658
0.99548217
0.99548217
0.99548217
0.99548217
0.99548217
1.1582824
1.0946149
1.0470175
1.0470175
1.0946149
1.0946149
1.1582824
1.0946149
1.0946149
1.0946149
1.0946149
0.99548217
0.99548217
0.99548217
0.99548217
0.99548217
0.99548217
1.144592
1.144592
1.144592
1.144592
1.144592
1.144592
1.144592
1.144592
1.144592
1.1582824
1.1582824
1.1582824
1.1625592
1.1625592
1.1625592
1.144592
1.1582824
1.144592
1.0946149
1.0946149
1.1582824
1.1582824
1.1582824
1.0946149
1.1582824
1.1582824
1.1582824
1.0946149
1.144592
1.144592
1.144592
1.144592
1.1625592
0.82799658
0.82799658
0.82799658
0.82799658
0.82799658
0.96035797
0.96035797
0.96035797
0.96035797
0.87787748
1.0946149
1.0946149
1.0946149
0.82799658
1.1625592
0.96035797
0.96035797
1.0601178
1.0601178
0.99548217
0.99548217
0.87787748
0.87787748
0.87787748
0.87787748
0.87787748
0.87787748
0.87787748
0.87787748
0.87787748
0.87787748
1.0601178
1.0601178
1.0601178
1.0601178
1.0601178
1.0601178
1.0601178
1.1625592
1.1625592
1.1625592
1.1625592
0.82799658
1.1625592
1.1625592
1.1625592
1.1625592
0.8843613
0.8843613
0.8843613
0.8843613
0.8843613
0.8843613
0.8843613
0.96035797
0.96035797
0.96035797
0.99548217
0.87787748
0.96035797
0.87787748
0.87787748
0.96035797
0.87787748
0.87787748
1.0946149
1.0946149
1.0946149
1.0946149
1.0946149
1.0946149
1.0946149
1.1625592
1.1625592
1.1625592
1.1625592
1.1625592
0.82799658
0.82799658
0.82799658
0.82799658
0.82799658
0.82799658
0.82799658
1.1582824
1.1582824
1.1582824
1.1582824
1.1582824
1.1625592
1.1582824
1.1582824
1.1582824
1.1582824
0.8843613
0.8843613
0.8843613
0.8843613
1.1625592
1.0347494
1.0347494
1.1625592
1.1625592
1.1625592
1.1625592
1.1625592
1.0347494
1.0347494
1.0347494
1.0347494
1.0347494
1.0347494
1.0347494
1.0347494
1.0347494
1.0347494
1.0347494
1.0347494
1.0347494
1.0347494
1.0601178
1.0601178
1.0601178
1.0601178
1.0601178
1.0601178
1.0601178
1.0601178
1.0347494
1.1625592
1.0347494
1.0347494
1.0601178
0.99548217
0.99548217
0.87787748
0.8843613
0.87787748
0.87787748
0.8843613
0.8843613
0.87787748
1.0470175
1.0470175
1.0470175
1.0470175
1.0470175
1.0470175
0.87787748
0.87787748
0.87787748
0.87787748
0.87787748
0.87787748
0.87787748
0.96035797
0.87787748
0.87787748
0.87787748
0.87787748
0.87787748
0.87787748
0.87787748
0.87787748
0.87787748
0.87787748
0.87787748
1.0601178
1.0601178
1.0601178
1.0601178
1.0601178
1.0470175
1.0470175
1.0470175
1.0470175
1.0470175
1.0470175
1.0470175
1.0946149
1.0470175
1.0946149
1.0946149
1.0946149
1.0946149
1.0946149
1.0470175
1.144592
1.144592
0.82799658
0.82799658
0.82799658
1.0601178
0.82799658
0.82799658
1.0601178
0.96035797
1.0601178
1.0601178
1.0601178
1.0601178
1.0601178
1.0601178
1.0601178
1.0601178
0.96035797
1.0601178
1.0601178
1.0601178
1.0601178
1.0601178
1.0601178
1.0601178
0.87787748
)
;
    }
    procBoundary4to0
    {
        type            processor;
        value           uniform 0;
    }
    procBoundary4to1
    {
        type            processor;
        value           uniform 0;
    }
    procBoundary4to2
    {
        type            processor;
        value           uniform 0;
    }
    procBoundary4to3
    {
        type            processor;
        value           uniform 0;
    }
    procBoundary4to6
    {
        type            processor;
        value           uniform 0;
    }
    procBoundary4to7
    {
        type            processor;
        value           uniform 0;
    }
}


// ************************************************************************* //
