/*--------------------------------*- C++ -*----------------------------------*\
  =========                 |
  \\      /  F ield         | OpenFOAM: The Open Source CFD Toolbox
   \\    /   O peration     | Website:  https://openfoam.org
    \\  /    A nd           | Version:  8
     \\/     M anipulation  |
\*---------------------------------------------------------------------------*/
/*   Windows 32 and 64 bit porting by blueCAPE: http://www.bluecape.com.pt   *\
|  Based on Windows porting (2.0.x v4) by Symscape: http://www.symscape.com   |
\*---------------------------------------------------------------------------*/
FoamFile
{
    version     2.0;
    format      ascii;
    class       volScalarField;
    location    "0/vegetation";
    object      facesAgglomeration;
}
// * * * * * * * * * * * * * * * * * * * * * * * * * * * * * * * * * * * * * //

dimensions      [0 0 0 0 0 0 0];

internalField   uniform 0;

boundaryField
{
    left
    {
        type            calculated;
        value           nonuniform List<scalar> 0();
    }
    right
    {
        type            calculated;
        value           nonuniform List<scalar> 0();
    }
    back
    {
        type            calculated;
        value           nonuniform List<scalar> 0();
    }
    front
    {
        type            calculated;
        value           nonuniform List<scalar> 0();
    }
    bottom
    {
        type            calculated;
        value           nonuniform List<scalar> 
492
(
74
75
74
76
77
78
77
79
78
76
80
81
82
77
83
84
84
85
86
80
79
77
87
88
84
84
89
86
85
90
91
91
83
82
82
82
92
90
93
93
93
94
94
78
93
95
96
83
75
97
98
99
99
100
101
102
102
98
103
100
104
104
105
100
94
94
83
101
105
104
104
106
106
75
107
108
109
110
111
107
75
109
112
113
114
110
115
111
116
117
118
119
115
120
120
121
114
113
111
122
117
123
123
124
117
117
124
118
118
118
120
120
125
124
126
114
76
95
95
96
96
90
78
127
127
95
87
87
80
80
76
128
96
96
127
127
83
85
85
129
91
91
86
87
79
79
128
128
128
93
86
88
88
88
90
130
99
99
99
99
97
81
101
101
101
102
98
98
98
98
102
103
103
103
107
107
100
105
105
105
131
102
115
108
108
108
110
119
119
112
112
112
113
126
113
123
123
110
132
132
111
119
119
119
120
115
115
114
121
121
122
122
111
117
122
117
124
123
123
126
126
117
81
81
81
97
97
97
113
109
109
133
133
133
134
134
134
134
135
89
130
130
136
129
129
137
138
139
137
130
89
89
92
116
125
125
139
140
92
137
129
129
136
136
136
137
92
92
138
130
140
130
130
139
125
132
132
141
141
141
140
140
141
139
139
139
140
140
142
142
142
142
129
129
133
143
116
109
143
109
109
116
144
144
143
143
121
135
145
138
138
146
146
106
106
147
147
148
149
144
150
151
145
152
146
146
153
148
154
155
156
157
151
150
147
158
159
160
154
159
158
157
156
160
159
131
152
161
161
151
131
162
162
152
156
163
156
164
150
165
165
165
165
150
166
166
166
167
166
166
158
161
167
155
168
160
169
170
171
172
170
173
163
168
155
174
175
157
164
175
174
170
170
170
174
173
173
147
153
161
176
153
153
154
153
148
153
153
154
172
173
157
151
165
165
167
160
158
159
160
167
144
152
152
162
131
159
145
145
162
171
171
152
163
171
163
150
165
150
160
155
168
169
169
169
177
177
170
172
170
172
168
177
177
174
174
174
175
175
174
148
176
146
146
146
164
164
164
135
178
178
178
135
135
176
176
149
149
149
149
179
179
178
179
179
179
143
74
143
143
143
74
)
;
    }
    top
    {
        type            calculated;
        value           nonuniform List<scalar> 0();
    }
    Building
    {
        type            calculated;
        value           nonuniform List<scalar> 
295
(
180
181
182
183
184
185
186
187
188
189
190
191
192
193
194
195
196
197
198
199
200
201
202
203
204
205
206
207
208
209
210
211
212
213
214
215
216
217
218
219
220
221
222
223
224
225
226
227
228
229
230
231
232
233
234
235
236
237
238
239
240
241
242
243
244
245
246
247
248
249
250
251
252
253
254
255
256
257
258
259
260
261
262
263
264
265
266
267
268
269
270
271
272
273
274
275
276
277
278
279
280
281
282
283
284
285
286
287
288
289
290
291
292
293
294
295
296
297
298
299
300
301
302
303
304
305
306
307
308
309
310
311
312
313
314
315
316
317
318
319
320
321
322
323
324
325
326
327
328
329
330
331
332
333
334
335
336
337
338
339
340
341
342
343
344
345
346
347
348
349
350
351
352
353
354
355
356
357
358
359
360
361
362
363
364
365
366
367
368
369
370
371
372
373
374
375
376
377
378
379
380
381
382
383
384
385
386
387
388
389
390
391
392
393
394
395
396
397
398
399
400
401
402
403
404
405
406
407
408
409
410
411
412
413
414
415
416
417
418
419
420
421
422
423
424
425
426
427
428
429
430
431
432
433
434
435
436
437
438
439
440
441
442
443
444
445
446
447
448
449
450
451
452
453
454
455
456
457
458
459
460
461
462
463
464
465
466
467
468
469
470
471
472
473
474
)
;
    }
    air_to_vegetation
    {
        type            calculated;
        value           nonuniform List<scalar> 
330
(
475
476
477
478
478
479
480
475
475
481
476
481
482
483
483
484
484
478
478
485
485
486
487
481
481
483
488
489
489
489
489
490
480
490
480
488
491
492
491
492
487
480
488
487
493
494
495
496
497
498
494
499
500
499
499
499
493
494
501
501
502
497
497
500
493
495
503
504
503
505
505
505
504
506
477
506
507
506
506
508
508
477
476
477
485
476
509
509
485
509
509
482
507
484
507
507
484
510
486
486
485
486
476
481
510
508
508
510
479
479
483
479
475
511
512
491
511
512
513
514
491
514
490
479
491
490
492
492
511
488
514
491
514
492
492
512
511
491
511
487
487
513
487
513
513
512
511
515
503
515
496
496
502
502
496
493
501
501
494
502
500
498
497
497
503
495
515
505
495
498
500
515
498
495
503
497
496
503
496
504
504
496
494
496
482
516
516
510
482
516
478
486
516
486
486
478
486
517
518
519
520
521
518
519
520
521
522
522
522
522
523
523
524
525
525
526
524
524
524
527
518
527
528
529
529
528
520
521
526
523
530
531
532
533
534
535
534
536
531
531
537
538
539
538
538
536
537
532
533
540
533
541
533
542
542
541
541
532
539
517
517
536
535
543
543
525
529
544
518
519
527
545
520
528
527
525
528
525
528
527
529
544
521
518
528
523
526
544
545
519
545
530
545
530
526
544
530
542
531
540
542
539
535
540
535
537
532
538
538
538
538
537
541
538
532
542
542
540
534
517
536
536
543
543
542
539
534
534
534
534
)
;
    }
    procBoundary1to0
    {
        type            processor;
        value           nonuniform List<scalar> 
302
(
546
547
548
549
550
551
552
553
554
555
556
557
558
559
560
561
562
563
564
565
566
567
568
569
570
571
572
573
574
575
576
577
578
579
580
581
582
583
584
585
586
587
588
589
590
591
592
593
594
595
596
597
598
599
600
601
602
603
604
605
606
607
608
609
610
611
612
613
614
615
616
617
618
619
620
621
622
623
624
625
626
627
628
629
630
631
632
633
634
635
636
637
638
639
640
641
642
643
644
645
646
647
648
649
650
651
652
653
654
655
656
657
658
659
660
661
662
663
664
665
666
667
668
669
670
671
672
673
674
675
676
677
678
679
680
681
682
683
684
685
686
687
688
689
690
691
692
693
694
695
696
697
698
699
700
701
702
703
704
705
706
707
708
709
710
711
712
713
714
715
716
717
718
719
720
721
722
723
724
725
726
727
728
729
730
731
732
733
734
735
736
737
738
739
740
741
742
743
744
745
746
747
748
749
750
751
752
753
754
755
756
757
758
759
760
761
762
763
764
765
766
767
768
769
770
771
772
773
774
775
776
777
778
779
780
781
782
783
784
785
786
787
788
789
790
791
792
793
794
795
796
797
798
799
800
801
802
803
804
805
806
807
808
809
810
811
812
813
814
815
816
817
818
819
820
821
822
823
824
825
826
827
828
829
830
831
832
833
834
835
836
837
838
839
840
841
842
843
844
845
846
847
)
;
    }
    procBoundary1to2
    {
        type            processor;
        value           nonuniform List<scalar> 
374
(
848
849
850
851
852
853
854
855
856
857
858
859
860
861
862
863
864
865
866
867
868
869
870
871
872
873
874
875
876
877
878
879
880
881
882
883
884
885
886
887
888
889
890
891
892
893
894
895
896
897
898
899
900
901
902
903
904
905
906
907
908
909
910
911
912
913
914
915
916
917
918
919
920
921
922
923
924
925
926
927
928
929
930
931
932
933
934
935
936
937
938
939
940
941
942
943
944
945
946
947
948
949
950
951
952
953
954
955
956
957
958
959
960
961
962
963
964
965
966
967
968
969
970
971
972
973
974
975
976
977
978
979
980
981
982
983
984
985
986
987
988
989
990
991
992
993
994
995
996
997
998
999
1000
1001
1002
1003
1004
1005
1006
1007
1008
1009
1010
1011
1012
1013
1014
1015
1016
1017
1018
1019
1020
1021
1022
1023
1024
1025
1026
1027
1028
1029
1030
1031
1032
1033
1034
1035
1036
1037
1038
1039
1040
1041
1042
1043
1044
1045
1046
1047
1048
1049
1050
1051
1052
1053
1054
1055
1056
1057
1058
1059
1060
1061
1062
1063
1064
1065
1066
1067
1068
1069
1070
1071
1072
1073
1074
1075
1076
1077
1078
1079
1080
1081
1082
1083
1084
1085
1086
1087
1088
1089
1090
1091
1092
1093
1094
1095
1096
1097
1098
1099
1100
1101
1102
1103
1104
1105
1106
1107
1108
1109
1110
1111
1112
1113
1114
1115
1116
1117
1118
1119
1120
1121
1122
1123
1124
1125
1126
1127
1128
1129
1130
1131
1132
1133
1134
1135
1136
1137
1138
1139
1140
1141
1142
1143
1144
1145
1146
1147
1148
1149
1150
1151
1152
1153
1154
1155
1156
1157
1158
1159
1160
1161
1162
1163
1164
1165
1166
1167
1168
1169
1170
1171
1172
1173
1174
1175
1176
1177
1178
1179
1180
1181
1182
1183
1184
1185
1186
1187
1188
1189
1190
1191
1192
1193
1194
1195
1196
1197
1198
1199
1200
1201
1202
1203
1204
1205
1206
1207
1208
1209
1210
1211
1212
1213
1214
1215
1216
1217
1218
1219
1220
1221
)
;
    }
    procBoundary1to5
    {
        type            processor;
        value           nonuniform List<scalar> 
16
(
1222
1223
1224
1225
1226
1227
1228
1229
1230
1231
1232
1233
1234
1235
1236
1237
)
;
    }
    procBoundary1to6
    {
        type            processor;
        value           nonuniform List<scalar> 
12
(
1238
1239
1240
1241
1242
1243
1244
1245
1246
1247
1248
1249
)
;
    }
    procBoundary1to8
    {
        type            processor;
        value           nonuniform List<scalar> 
17
(
1250
1251
1252
1253
1254
1255
1256
1257
1258
1259
1260
1261
1262
1263
1264
1265
1266
)
;
    }
    procBoundary1to9
    {
        type            processor;
        value           nonuniform List<scalar> 2(1267 1268);
    }
}


// ************************************************************************* //
