/*--------------------------------*- C++ -*----------------------------------*\
  =========                 |
  \\      /  F ield         | OpenFOAM: The Open Source CFD Toolbox
   \\    /   O peration     | Website:  https://openfoam.org
    \\  /    A nd           | Version:  8
     \\/     M anipulation  |
\*---------------------------------------------------------------------------*/
/*   Windows 32 and 64 bit porting by blueCAPE: http://www.bluecape.com.pt   *\
|  Based on Windows porting (2.0.x v4) by Symscape: http://www.symscape.com   |
\*---------------------------------------------------------------------------*/
FoamFile
{
    version     2.0;
    format      ascii;
    class       volScalarField;
    location    "0/vegetation";
    object      viewFactorField;
}
// * * * * * * * * * * * * * * * * * * * * * * * * * * * * * * * * * * * * * //

dimensions      [0 0 0 0 0 0 0];

internalField   uniform 0;

boundaryField
{
    left
    {
        type            calculated;
        value           nonuniform List<scalar> 0();
    }
    right
    {
        type            calculated;
        value           nonuniform List<scalar> 0();
    }
    back
    {
        type            calculated;
        value           nonuniform List<scalar> 0();
    }
    front
    {
        type            calculated;
        value           nonuniform List<scalar> 0();
    }
    bottom
    {
        type            calculated;
        value           nonuniform List<scalar> 
492
(
1.0267366
1.0014436
1.0267366
1.0650789
1.1982734
1.2399333
1.1982734
1.1136413
1.2399333
1.0650789
1.0709729
1.1166509
1.1813068
1.1982734
1.1534208
1.1703999
1.1703999
1.3079306
1.3123309
1.0709729
1.1136413
1.1982734
1.1600339
1.238607
1.1703999
1.1703999
1.1136789
1.3123309
1.3079306
1.232248
1.270046
1.270046
1.1534208
1.1813068
1.1813068
1.1813068
1.1946062
1.232248
1.1988009
1.1988009
1.1988009
1.3049318
1.3049318
1.2399333
1.1988009
1.0997129
1.1668649
1.1534208
1.0014436
1.1044748
1.1026592
1.0592504
1.0592504
1.2153495
1.2185712
1.0879672
1.0879672
1.1026592
1.202203
1.2153495
1.1224996
1.1224996
1.1581746
1.2153495
1.3049318
1.3049318
1.1534208
1.2185712
1.1581746
1.1224996
1.1224996
1.1163042
1.1163042
1.0014436
1.161389
1.0824879
1.0064332
1.2264308
1.1024825
1.161389
1.0014436
1.0064332
1.0443219
1.0430295
1.0485548
1.2264308
1.1265594
1.1024825
0.99276382
1.2453333
1.1448648
1.1965925
1.1265594
1.0939389
1.0939389
1.0071219
1.0485548
1.0430295
1.1024825
1.1959089
1.2453333
1.1551238
1.1551238
1.2017812
1.2453333
1.2453333
1.2017812
1.1448648
1.1448648
1.1448648
1.0939389
1.0939389
1.027395
1.2017812
1.1006134
1.0485548
1.0650789
1.0997129
1.0997129
1.1668649
1.1668649
1.232248
1.2399333
1.1960882
1.1960882
1.0997129
1.1600339
1.1600339
1.0709729
1.0709729
1.0650789
1.1583905
1.1668649
1.1668649
1.1960882
1.1960882
1.1534208
1.3079306
1.3079306
1.2803074
1.270046
1.270046
1.3123309
1.1600339
1.1136413
1.1136413
1.1583905
1.1583905
1.1583905
1.1988009
1.3123309
1.238607
1.238607
1.238607
1.232248
1.1581711
1.0592504
1.0592504
1.0592504
1.0592504
1.1044748
1.1166509
1.2185712
1.2185712
1.2185712
1.0879672
1.1026592
1.1026592
1.1026592
1.1026592
1.0879672
1.202203
1.202203
1.202203
1.161389
1.161389
1.2153495
1.1581746
1.1581746
1.1581746
1.1876596
1.0879672
1.1265594
1.0824879
1.0824879
1.0824879
1.2264308
1.1965925
1.1965925
1.0443219
1.0443219
1.0443219
1.0430295
1.1006134
1.0430295
1.1551238
1.1551238
1.2264308
1.0398201
1.0398201
1.1024825
1.1965925
1.1965925
1.1965925
1.0939389
1.1265594
1.1265594
1.0485548
1.0071219
1.0071219
1.1959089
1.1959089
1.1024825
1.2453333
1.1959089
1.2453333
1.2017812
1.1551238
1.1551238
1.1006134
1.1006134
1.2453333
1.1166509
1.1166509
1.1166509
1.1044748
1.1044748
1.1044748
1.0430295
1.0064332
1.0064332
1.3107187
1.3107187
1.3107187
1.2506253
1.2506253
1.2506253
1.2506253
1.3059605
1.1136789
1.1581711
1.1581711
1.1572713
1.2803074
1.2803074
1.1883787
1.2382588
1.3122478
1.1883787
1.1581711
1.1136789
1.1136789
1.1946062
0.99276382
1.027395
1.027395
1.3122478
1.3480073
1.1946062
1.1883787
1.2803074
1.2803074
1.1572713
1.1572713
1.1572713
1.1883787
1.1946062
1.1946062
1.2382588
1.1581711
1.3480073
1.1581711
1.1581711
1.3122478
1.027395
1.0398201
1.0398201
1.3761377
1.3761377
1.3761377
1.3480073
1.3480073
1.3761377
1.3122478
1.3122478
1.3122478
1.3480073
1.3480073
1.3883511
1.3883511
1.3883511
1.3883511
1.2803074
1.2803074
1.3107187
1.001506
0.99276382
1.0064332
1.001506
1.0064332
1.0064332
0.99276382
1.0177019
1.0177019
1.001506
1.001506
1.0071219
1.3059605
1.1920333
1.2382588
1.2382588
1.2747597
1.2747597
1.1163042
1.1163042
1.2615324
1.2615324
1.3436879
1.4134758
1.0177019
1.1291331
1.2711039
1.1920333
1.02613
1.2747597
1.2747597
1.3171117
1.3436879
1.3853108
1.1113913
1.0353907
1.0785981
1.2711039
1.1291331
1.2615324
1.1937494
1.2374275
1.1776223
1.3853108
1.2374275
1.1937494
1.0785981
1.0353907
1.1776223
1.2374275
1.1876596
1.02613
1.3657036
1.3657036
1.2711039
1.1876596
1.2768853
1.2768853
1.02613
1.0353907
1.0876691
1.0353907
1.0580279
1.1291331
1.1385979
1.1385979
1.1385979
1.1385979
1.1291331
1.356233
1.356233
1.356233
1.2425726
1.356233
1.356233
1.1937494
1.3657036
1.2425726
1.1113913
1.1512842
1.1776223
1.0526258
1.2070233
1.0493992
1.2397123
1.2070233
1.1247339
1.0876691
1.1512842
1.1113913
1.0508458
1.060163
1.0785981
1.0580279
1.060163
1.0508458
1.2070233
1.2070233
1.2070233
1.0508458
1.1247339
1.1247339
1.2615324
1.3171117
1.3657036
1.3280437
1.3171117
1.3171117
1.3853108
1.3171117
1.3436879
1.3171117
1.3171117
1.3853108
1.2397123
1.1247339
1.0785981
1.2711039
1.1385979
1.1385979
1.2425726
1.1776223
1.1937494
1.2374275
1.1776223
1.2425726
1.0177019
1.02613
1.02613
1.2768853
1.1876596
1.2374275
1.1920333
1.1920333
1.2768853
1.0493992
1.0493992
1.02613
1.0876691
1.0493992
1.0876691
1.1291331
1.1385979
1.1291331
1.1776223
1.1113913
1.1512842
1.0526258
1.0526258
1.0526258
1.1152066
1.1152066
1.2070233
1.2397123
1.2070233
1.2397123
1.1512842
1.1152066
1.1152066
1.0508458
1.0508458
1.0508458
1.060163
1.060163
1.0508458
1.3436879
1.3280437
1.2747597
1.2747597
1.2747597
1.0580279
1.0580279
1.0580279
1.3059605
1.3453568
1.3453568
1.3453568
1.3059605
1.3059605
1.3280437
1.3280437
1.4134758
1.4134758
1.4134758
1.4134758
1.3737872
1.3737872
1.3453568
1.3737872
1.3737872
1.3737872
1.001506
1.0267366
1.001506
1.001506
1.001506
1.0267366
)
;
    }
    top
    {
        type            calculated;
        value           nonuniform List<scalar> 0();
    }
    Building
    {
        type            calculated;
        value           nonuniform List<scalar> 
295
(
0.99452986
0.99460562
0.99402079
0.98269975
0.99205643
1.0025597
0.99133255
1.0483332
1.0233558
1.0211357
1.0003963
0.99519005
0.98557487
1.0218908
0.99303599
0.99065192
1.0239725
1.0073054
1.014199
0.98283867
0.97248657
0.99416919
0.9912818
0.95141683
0.97623024
1.0000282
0.99571942
1.0079701
1.0127289
0.97752418
0.99181411
0.97448863
0.93034596
0.99905133
0.98054833
1.0172241
0.99949979
1.0002667
0.98838357
0.97443535
0.98815457
0.99333883
1.0317197
0.96596148
1.0203749
0.97561717
1.0320355
1.1749873
0.97996522
1.0078351
0.92470056
0.95506815
0.92638051
1.0363293
0.89754286
0.92713563
0.97789699
0.97014674
0.95454151
0.90718713
0.95907431
0.98437477
1.0317015
1.0418383
0.97349986
0.99352366
1.0077176
0.95584368
1.0276755
0.98656553
1.0536416
1.0058571
0.96452611
1.0026315
1.037315
0.95347682
0.98530811
0.99415118
0.9804754
0.98890959
0.98410356
0.97558883
1.0066732
0.97834914
0.98011549
0.97918918
0.98356634
0.98783487
0.98948341
0.98877751
0.99463519
0.98856635
0.97527729
0.98078384
0.98062462
0.97803321
0.9866201
0.99373125
0.99137466
0.9799036
0.97194669
0.98584191
0.98349636
0.98508026
0.98151583
1.0443185
0.98355911
0.99159506
0.98057474
0.98860868
0.98337159
0.97706172
0.98180368
0.98397161
0.98343485
0.98437586
0.98044564
0.98091832
0.99507582
0.99170849
0.99101466
0.98365245
1.0443449
0.97666904
1.044738
0.98225221
0.96523202
1.1298669
1.0818651
1.0176284
1.0681943
1.0042657
0.97390374
0.97100218
0.97874004
1.0881775
1.086647
1.0353295
1.0519484
0.98945932
1.0824107
1.135818
1.0687715
1.0119303
0.97970917
1.0706249
1.0769331
1.0885221
1.0909672
1.0630417
1.0548854
1.0121419
1.0352269
0.99215025
0.99546428
0.99050589
1.0175194
1.0342712
0.98860036
0.98196851
1.0114964
1.0147269
0.98717923
0.97693495
0.96999889
0.97113635
0.97608689
0.98366747
1.0749123
1.0689215
1.0608948
1.0375987
0.98320473
0.97014875
1.078409
1.1029711
1.0691404
1.0899667
1.2794914
1.0307117
1.0771795
0.98751292
1.0018192
1.0352654
0.97795352
1.0957068
1.086731
1.089426
1.0387647
1.0659592
1.0301859
1.0462597
0.98317607
0.98227954
1.0217896
0.98962673
1.0256618
1.0603005
1.1431812
1.1222605
1.0713414
0.97818765
0.97807509
0.97963153
0.9805381
0.99205324
0.99229053
0.99128051
0.99365693
0.99153867
0.99228574
0.99131819
0.9914259
0.99245992
0.9921701
0.99430143
0.9922173
0.99162846
0.99289804
0.99700406
1.0044508
0.98413924
0.97975276
1.0424367
1.0437118
0.99782915
0.99254664
0.9939166
0.99725312
0.99495486
0.99015088
1.0406597
0.99435532
0.99270395
1.0399787
0.98999549
0.9951789
0.99078534
0.98789522
0.98866359
0.97393767
0.98626666
1.0039219
0.98732758
1.0403303
0.99709708
0.99686468
1.0437237
1.0400399
0.9975396
0.99955463
0.99880542
0.99266886
0.99305421
0.99376207
0.99580406
0.99573225
0.991637
0.98491311
0.99691924
0.99552199
0.99166241
0.99185227
0.99126347
0.9923174
0.99175308
0.98565741
0.99061444
0.99943585
1.0009301
1.0461466
1.0436713
0.9854527
1.0386189
0.99420181
1.036426
0.99335641
1.0423144
0.99088549
0.9928038
0.98783578
1.0383181
0.9945132
1.0421931
0.99313859
1.0412407
1.0484088
1.0493734
0.99331501
1.0402162
0.99269308
0.99301189
0.99111918
1.0038604
0.97835311
)
;
    }
    air_to_vegetation
    {
        type            calculated;
        value           nonuniform List<scalar> 
330
(
1.175422
1.0048436
1.0530152
1.0491029
1.0491029
1.1031468
1.2730933
1.175422
1.175422
1.156512
1.0048436
1.156512
1.2072007
1.1891711
1.1891711
1.2176098
1.2176098
1.0491029
1.0491029
1.264352
1.264352
1.5283788
1.1207076
1.156512
1.156512
1.1891711
1.0786317
1.1816585
1.1816585
1.1816585
1.1816585
1.2998445
1.2730933
1.2998445
1.2730933
1.0786317
1.0747304
1.1651803
1.0747304
1.1651803
1.1207076
1.2730933
1.0786317
1.1207076
1.236506
1.1752145
1.3321216
1.1645633
1.2837196
1.124464
1.1752145
1.2498865
1.1370098
1.2498865
1.2498865
1.2498865
1.236506
1.1752145
1.0112484
1.0112484
1.0641287
1.2837196
1.2837196
1.1370098
1.236506
1.3321216
1.3153102
1.0993527
1.3153102
1.27739
1.27739
1.27739
1.0993527
1.0013037
1.0530152
1.0013037
1.005121
1.0013037
1.0013037
1.0709218
1.0709218
1.0530152
1.0048436
1.0530152
1.264352
1.0048436
1.0346383
1.0346383
1.264352
1.0346383
1.0346383
1.2072007
1.005121
1.2176098
1.005121
1.005121
1.2176098
1.1503538
1.5283788
1.5283788
1.264352
1.5283788
1.0048436
1.156512
1.1503538
1.0709218
1.0709218
1.1503538
1.1031468
1.1031468
1.1891711
1.1031468
1.175422
1.089911
1.0029773
1.0747304
1.089911
1.0029773
1.069495
1.2432989
1.0747304
1.2432989
1.2998445
1.1031468
1.0747304
1.2998445
1.1651803
1.1651803
1.089911
1.0786317
1.2432989
1.0747304
1.2432989
1.1651803
1.1651803
1.0029773
1.089911
1.0747304
1.089911
1.1207076
1.1207076
1.069495
1.1207076
1.069495
1.069495
1.0029773
1.089911
1.0488499
1.3153102
1.0488499
1.1645633
1.1645633
1.0641287
1.0641287
1.1645633
1.236506
1.0112484
1.0112484
1.1752145
1.0641287
1.1370098
1.124464
1.2837196
1.2837196
1.3153102
1.3321216
1.0488499
1.27739
1.3321216
1.124464
1.1370098
1.0488499
1.124464
1.3321216
1.3153102
1.2837196
1.1645633
1.3153102
1.1645633
1.0993527
1.0993527
1.1645633
1.1752145
1.1645633
1.2072007
1.4100248
1.4100248
1.1503538
1.2072007
1.4100248
1.0491029
1.5283788
1.4100248
1.5283788
1.5283788
1.0491029
1.5283788
1.2309883
1.0958227
1.2045415
1.1402101
1.0944066
1.0958227
1.2045415
1.1402101
1.0944066
1.4078834
1.4078834
1.4078834
1.4078834
1.2421499
1.2421499
1.5688496
1.3260479
1.3260479
1.1177265
1.5688496
1.5688496
1.5688496
1.2452812
1.0958227
1.2452812
1.1358076
1.1982269
1.1982269
1.1358076
1.1402101
1.0944066
1.1177265
1.2421499
1.024338
1.1437673
1.1847618
1.1368996
1.0642302
1.0561555
1.0642302
1.1329865
1.1437673
1.1437673
1.3006481
1.3722623
1.0810254
1.3722623
1.3722623
1.1329865
1.3006481
1.1847618
1.1368996
0.94346917
1.1368996
1.0467603
1.1368996
1.1507401
1.1507401
1.0467603
1.0467603
1.1847618
1.0810254
1.2309883
1.2309883
1.1329865
1.0561555
1.0181957
1.0181957
1.3260479
1.1982269
1.186979
1.0958227
1.2045415
1.2452812
1.0684675
1.1402101
1.1358076
1.2452812
1.3260479
1.1358076
1.3260479
1.1358076
1.2452812
1.1982269
1.186979
1.0944066
1.0958227
1.1358076
1.2421499
1.1177265
1.186979
1.0684675
1.2045415
1.0684675
1.024338
1.0684675
1.024338
1.1177265
1.186979
1.024338
1.1507401
1.1437673
0.94346917
1.1507401
1.0810254
1.0561555
0.94346917
1.0561555
1.3006481
1.1847618
1.3722623
1.3722623
1.3722623
1.3722623
1.3006481
1.0467603
1.3722623
1.1847618
1.1507401
1.1507401
0.94346917
1.0642302
1.2309883
1.1329865
1.1329865
1.0181957
1.0181957
1.1507401
1.0810254
1.0642302
1.0642302
1.0642302
1.0642302
)
;
    }
    procBoundary1to0
    {
        type            processor;
        value           uniform 0;
    }
    procBoundary1to2
    {
        type            processor;
        value           uniform 0;
    }
    procBoundary1to5
    {
        type            processor;
        value           uniform 0;
    }
    procBoundary1to6
    {
        type            processor;
        value           uniform 0;
    }
    procBoundary1to8
    {
        type            processor;
        value           uniform 0;
    }
    procBoundary1to9
    {
        type            processor;
        value           uniform 0;
    }
}


// ************************************************************************* //
