/*--------------------------------*- C++ -*----------------------------------*\
  =========                 |
  \\      /  F ield         | OpenFOAM: The Open Source CFD Toolbox
   \\    /   O peration     | Website:  https://openfoam.org
    \\  /    A nd           | Version:  8
     \\/     M anipulation  |
\*---------------------------------------------------------------------------*/
/*   Windows 32 and 64 bit porting by blueCAPE: http://www.bluecape.com.pt   *\
|  Based on Windows porting (2.0.x v4) by Symscape: http://www.symscape.com   |
\*---------------------------------------------------------------------------*/
FoamFile
{
    version     2.0;
    format      ascii;
    class       volScalarField;
    location    "0/vegetation";
    object      viewFactorField;
}
// * * * * * * * * * * * * * * * * * * * * * * * * * * * * * * * * * * * * * //

dimensions      [0 0 0 0 0 0 0];

internalField   uniform 0;

boundaryField
{
    left
    {
        type            calculated;
        value           nonuniform List<scalar> 0();
    }
    right
    {
        type            calculated;
        value           nonuniform List<scalar> 0();
    }
    back
    {
        type            calculated;
        value           nonuniform List<scalar> 0();
    }
    front
    {
        type            calculated;
        value           nonuniform List<scalar> 0();
    }
    bottom
    {
        type            calculated;
        value           nonuniform List<scalar> 
279
(
1.0739
1.0739
1.0650368
1.0498383
1.084478
1.0498383
1.1498325
1.1672273
1.0509947
1.1968503
1.1672273
1.2771078
1.2771078
1.2388282
1.2388282
1.1710882
1.1087199
1.1692079
1.0509947
1.0509947
1.1087199
1.1492542
1.1492542
1.2729638
1.1710882
1.1498325
1.1894023
1.2729638
1.1492542
1.1087199
1.048344
1.055216
1.0886458
1.0304805
1.084478
1.025716
1.084478
1.055216
1.048344
1.1498325
1.1498325
1.1492542
1.337615
1.1533958
1.1199016
1.0739
1.1800365
1.100371
1.100371
1.1371435
1.219028
1.320785
1.1044035
1.0739
1.219028
1.1252416
1.2029621
1.320785
1.1894023
1.0866881
1.100371
1.0636415
1.0509666
1.0498383
1.048344
1.1533958
1.1858254
1.1199016
1.0886458
1.0886458
1.337615
1.337615
1.337615
1.1199016
1.0866881
1.1371435
1.100371
1.0866881
1.1044035
1.219028
1.1774934
1.1774934
1.1678645
1.1678645
1.1894023
1.0886458
1.0886458
1.055216
1.1006919
1.1553479
1.1800365
1.0498383
1.0509666
1.0509666
1.2388282
1.2388282
1.1672273
1.1968503
1.1968503
1.1968503
1.1672273
1.1710882
1.219028
1.1692079
1.1692079
1.1692079
1.1087199
1.0529424
1.0529424
1.2729638
1.2729638
1.2729638
1.1894023
1.1710882
1.1710882
1.2729638
1.1087199
1.1087199
1.025716
1.025716
1.084478
1.0529424
1.0529424
1.048344
1.1484826
1.1484826
1.1533958
1.1199016
1.1484826
1.1484826
1.1770182
1.1770182
1.1770182
1.1044035
1.0866881
1.1199016
1.1252416
1.1252416
1.1252416
1.1770182
1.2029621
1.2029621
1.100371
1.1678645
1.1678645
1.1774934
1.1774934
1.100371
1.1533958
1.1858254
1.1858254
1.1858254
1.1858254
1.1858254
1.1371435
1.1371435
1.1371435
1.1044035
1.0650368
1.1006919
1.0509947
1.0509947
1.0509947
1.055216
1.0509666
1.0509666
1.3106302
1.0636415
1.0636415
1.0636415
1.3106302
1.3106302
1.3106302
1.1800365
1.1423706
1.1423706
1.1553479
1.1553479
1.1553479
1.1933933
1.1933933
1.1933933
1.3202916
1.3202916
1.1933933
1.2771078
1.2771078
1.2771078
1.2771078
1.3202916
1.3202916
1.1800365
1.1423706
1.1423706
1.1646048
1.1646048
1.1646048
1.320785
1.320785
1.320785
1.2029621
1.2029621
1.1646048
1.0475129
1.0475129
1.0165941
1.0966701
1.0975864
1.1126888
1.1050402
1.0475129
1.0475129
1.0165941
1.0274587
1.0086074
1.0165941
1.0045659
1.0975864
1.0045659
1.0975864
1.1126888
1.0045659
1.0045659
1.1050402
1.1006919
1.1006919
1.1050402
1.1126888
1.1126888
1.0045659
1.0165941
1.0165941
1.0975864
1.0045659
1.0650368
1.0966701
1.0086074
1.0086074
1.0475129
1.0475129
1.0165941
1.1050402
1.0966701
1.0966701
1.0086074
1.0086074
1.0475129
1.1006919
1.0650368
1.0650368
1.0899212
1.0899212
1.0899212
1.2002032
1.2002032
1.0899212
1.0975864
1.0975864
1.1126888
1.1836899
1.1836899
1.1836899
1.2002032
1.2002032
1.1836899
1.0304805
1.0274587
1.0233383
1.0233383
1.0304805
1.0233383
1.025716
1.025716
1.0304805
1.0233383
1.025716
1.0509947
1.0274587
1.0274587
)
;
    }
    top
    {
        type            calculated;
        value           nonuniform List<scalar> 0();
    }
    Building
    {
        type            calculated;
        value           nonuniform List<scalar> 
559
(
1.0335084
1.0296511
1.0015928
1.029609
1.0356399
1.0455872
1.0460103
1.0437475
1.0126103
0.96201238
0.98788528
1.0075166
1.008193
0.99041097
0.99900415
1.0111008
0.99746169
1.0112532
1.0000115
1.0128312
1.0047553
1.0055033
1.0044457
1.0050196
0.96955443
0.99843718
1.0736818
1.0494754
1.0303579
1.0315592
1.0495273
0.99834523
0.99233276
0.99348662
0.98703053
0.98455591
0.98210448
0.97380931
0.99030272
0.9750023
0.99410224
1.0047773
0.99863941
1.0268651
1.0500286
1.0391064
0.95601302
0.98412063
1.2305282
1.0175878
1.032655
1.0711684
1.0642615
1.0571669
1.0797088
1.0118
0.97143261
1.0063085
0.99138626
0.98585383
0.9904223
0.9839543
1.0296356
0.99490298
1.0014778
1.0127974
1.009898
1.0065895
1.0057701
0.99477917
1.0003112
1.000408
1.0009793
1.0219895
1.0484808
1.0675947
1.0394827
1.0226399
1.0215001
1.012889
1.0046489
0.99361946
1.0171289
0.97111259
0.9628527
0.99453339
0.95552383
0.97281027
0.97117892
0.9434415
1.0080584
1.2487925
1.0492453
1.0111286
1.0014449
1.0255438
0.99891292
1.0080177
1.0152589
1.0059131
1.0157211
1.0183383
1.0275711
1.0166616
1.0335724
1.037776
1.0313609
1.0473634
1.0627226
1.0281576
1.0147125
1.0418779
1.0179144
1.0447144
1.0568865
0.98988195
0.99189461
0.98160343
0.99397494
0.99457999
0.99824791
1.043071
1.0213961
1.0086353
1.0336699
1.031162
1.0618182
0.96782899
1.0325067
0.99877618
1.0220529
1.0135457
1.0136223
1.0504261
0.98774597
0.99096793
0.98821283
0.98851265
0.99027901
0.98914452
0.98749626
0.99181835
0.9899037
0.98617205
0.99024675
0.98823928
0.98906338
0.98959689
0.99499104
0.99013152
0.99146027
0.989316
0.98823043
0.98926157
0.98691908
0.9887422
1.0453347
0.98593342
0.99283952
1.0000573
0.99246607
0.99073534
1.026798
0.98671822
0.99295696
1.0003918
0.99362334
0.98998417
0.98206338
0.98760052
1.0294954
0.98374429
0.98702482
0.97459124
0.99681484
0.99467555
0.99296477
0.99845373
0.99665569
0.99487485
0.99118269
0.99286172
0.99146255
0.9927774
0.99203475
0.99229345
0.9863767
0.98801011
0.99468571
0.99805746
1.0034174
0.99340897
0.99453593
0.99223032
0.98902439
0.99602666
1.0058853
0.97716699
1.0010887
1.1974022
0.98295067
0.99119533
0.99997348
0.99625999
0.99574101
0.99147
0.99385269
0.9946494
0.96665953
0.98864674
0.98531084
0.97164723
0.99564445
0.99390916
0.99554748
0.99504383
0.991977
0.99106059
0.99109774
0.99173142
0.99425472
0.99370309
0.99373682
0.99280857
0.99883238
0.99097069
1.0031202
1.0055174
0.99745255
1.0027261
1.0010076
1.0067356
0.99075666
0.99324227
0.99905344
0.99620055
0.99239184
0.99278416
0.99316396
1.0177086
1.0179276
1.0179311
0.99396864
0.99299041
0.9936174
0.99454434
1.0180055
1.0179758
0.99346108
0.99318677
0.99271602
0.99343703
0.99470988
0.99243183
0.99361704
0.99113738
1.0176417
1.0177889
0.99573651
0.99316799
0.99491152
0.99371185
0.99462961
0.99375201
0.99573852
0.99388659
0.99362284
0.993543
0.99411768
0.99380463
0.99424222
0.99363697
0.99460766
0.99436999
0.99217813
0.99393428
0.99457632
0.99181677
0.99600679
0.9984833
0.99740597
0.99652334
0.99513248
0.99412664
0.99501402
0.99491251
0.99481616
1.0011541
1.0062912
1.0006051
1.0041705
0.99753473
0.99421298
0.99314217
1.0175991
1.0176705
0.9930304
1.0178192
1.0177439
0.99145011
1.0178965
0.99744768
1.017442
1.0173821
0.99914778
0.99396747
1.0175296
1.017462
0.99431221
1.0173322
1.0173962
0.99414193
0.99366423
1.01727
1.0172095
0.99240778
1.0182282
1.0181257
0.99455953
0.99254806
0.99293457
1.0176523
1.0177825
1.0177237
1.0178249
1.018074
1.0179713
0.9942979
0.99365349
0.99317785
0.99420259
0.99514374
0.99348968
1.0178531
1.0178723
1.017797
0.99361478
0.9941073
1.0180877
1.0180289
1.0179495
1.0175829
1.0175716
1.0175152
1.0176861
1.0175547
1.0176576
0.99576359
0.99527162
0.99715851
0.99544675
0.99680042
0.99507884
0.9948868
1.0175083
1.0173855
1.0174495
0.99444003
1.0174304
1.0175334
0.99419436
1.0173195
1.0173233
1.0172629
0.99453791
0.99595221
0.99905105
1.0011182
0.99425321
0.99637816
0.99480751
0.99451924
0.99496729
0.99959677
0.99824615
0.99542343
1.000554
1.0050969
0.99531213
0.99561382
0.99712658
0.99691669
0.9961819
0.9959554
1.0188349
1.0108071
1.004505
1.0191114
1.0119377
1.0073381
0.99286603
1.0186077
1.0182264
1.0181407
0.99051703
0.98965404
0.99059164
0.99204796
0.99026902
0.99084272
0.99046683
0.98996264
0.9908855
0.9908798
1.0186973
0.98838351
0.98817276
0.98687932
0.98939087
0.98858366
0.98989254
0.98840301
0.99219827
0.98829669
0.98927733
0.98833148
0.9896345
0.9884746
0.98746025
0.98945352
0.98929143
0.98860815
0.98749893
0.98776108
0.98748393
0.98780646
0.98789931
0.98721432
0.98833953
0.98651571
0.9869971
0.98542123
0.98882935
0.98990855
0.98929477
0.98881922
0.99012982
0.989573
0.99005922
0.98903937
0.98764781
0.98885324
0.9887025
0.98846668
0.98799606
0.98844163
0.98982594
0.98920614
0.98787297
0.98878827
0.98841248
0.98752462
0.9920422
0.9919995
0.99278602
0.99389299
0.99250525
0.99091982
0.99163463
0.99115651
0.9915285
0.99118991
0.99040611
0.98962309
0.98821952
0.99574334
0.99400357
0.99468098
0.99126725
0.99055203
0.98905902
0.98962815
0.98903692
0.98868377
0.98823668
0.98783276
1.018335
1.0182525
1.0185615
0.99074391
0.99123695
0.9905292
1.0183143
0.99020216
1.0184967
1.0184044
0.99119396
1.0180572
0.99038646
0.9961532
0.99234619
0.99025072
0.99022428
0.99078641
0.99216487
0.99287473
0.99117589
0.99155326
0.98950766
0.98736343
0.9875553
0.9876812
0.98727574
0.98874079
0.98581765
0.98468698
0.98939916
0.98942602
1.0187879
0.98978157
1.0185914
1.0186884
0.99000161
0.98994396
0.98978377
0.98805139
0.98866681
0.98828919
0.98809885
0.98891079
0.98887558
0.98834766
0.98912006
1.0182793
1.018426
1.0183672
1.0181661
1.0181938
1.0181102
0.99201098
1.0184593
1.0187395
1.018638
1.0183907
1.0182883
0.99117755
0.99046356
1.0185495
1.0185127
1.0184572
0.99085575
1.0188893
1.0188393
0.99080536
0.99002722
1.0186434
1.0187906
1.0187398
0.98923539
0.99211075
0.9945869
0.99276716
0.9903781
0.99110183
0.99379223
0.99157181
0.98919516
0.9884606
0.98918802
)
;
    }
    air_to_vegetation
    {
        type            calculated;
        value           nonuniform List<scalar> 
130
(
1.1681748
1.4360616
1.4360616
1.3287205
0.96660849
1.2846016
1.2846016
1.122833
1.1686463
1.1055892
1.314508
1.4360616
0.96660849
1.2314156
0.96660849
0.96660849
1.2314156
1.2485133
1.1575363
1.1944092
1.3287205
1.3242216
1.314508
1.3454605
1.3242216
1.3454605
1.3565302
0.96660849
1.122833
1.3574546
1.1681748
1.1681748
1.0150899
1.0150899
1.0150899
1.0150899
1.1686463
1.1944092
1.1575363
1.0029452
1.122833
1.3242216
1.3454605
1.3454605
1.0859267
1.3242216
1.314508
1.314508
1.314508
1.0859267
0.9975851
0.9975851
0.9975851
1.314508
1.0859267
1.1088537
1.1088537
1.4360616
1.4360616
1.3565302
1.0859267
0.79739336
1.0655319
0.79739336
1.0655319
1.0533205
1.2485133
1.1055892
1.1055892
1.2485133
1.1361684
1.0533205
1.1055892
1.3287205
1.3287205
0.79739336
1.1055892
1.2846016
0.79739336
0.79739336
0.79739336
0.79739336
0.79739336
1.2485133
1.2485133
1.2846016
1.2485133
1.0533205
0.9975851
1.0405142
1.0655319
1.0533205
1.3574546
1.3574546
1.3574546
1.1944092
1.3287205
1.1681748
1.1361684
1.1686463
1.1686463
1.0029452
1.1686463
1.1575363
1.1575363
1.1944092
1.1944092
1.122833
1.122833
1.1361684
1.0029452
1.0029452
1.1088537
1.0405142
1.0859267
1.0405142
1.0536701
1.0405142
1.3565302
1.2314156
1.2314156
1.3565302
1.0536701
1.0655319
1.0536701
1.0536701
1.1088537
1.0536701
1.1361684
1.1361684
)
;
    }
    procBoundary2to0
    {
        type            processor;
        value           uniform 0;
    }
    procBoundary2to1
    {
        type            processor;
        value           uniform 0;
    }
    procBoundary2to5
    {
        type            processor;
        value           uniform 0;
    }
}


// ************************************************************************* //
