/*--------------------------------*- C++ -*----------------------------------*\
  =========                 |
  \\      /  F ield         | OpenFOAM: The Open Source CFD Toolbox
   \\    /   O peration     | Website:  https://openfoam.org
    \\  /    A nd           | Version:  8
     \\/     M anipulation  |
\*---------------------------------------------------------------------------*/
/*   Windows 32 and 64 bit porting by blueCAPE: http://www.bluecape.com.pt   *\
|  Based on Windows porting (2.0.x v4) by Symscape: http://www.symscape.com   |
\*---------------------------------------------------------------------------*/
FoamFile
{
    version     2.0;
    format      ascii;
    class       volScalarField;
    location    "0/vegetation";
    object      viewFactorField;
}
// * * * * * * * * * * * * * * * * * * * * * * * * * * * * * * * * * * * * * //

dimensions      [0 0 0 0 0 0 0];

internalField   uniform 0;

boundaryField
{
    left
    {
        type            calculated;
        value           nonuniform List<scalar> 
24
(
1.0875952
1.0875952
1.0756769
1.0875952
1.0875952
1.0875952
1.0875952
1.0875952
1.0875952
1.0875952
1.0875952
1.0875952
1.0875952
1.0875952
1.0756769
1.0756769
1.0756769
1.0875952
1.0875952
1.0875952
1.0875952
1.0875952
1.0875952
1.0875952
)
;
    }
    right
    {
        type            calculated;
        value           nonuniform List<scalar> 0();
    }
    back
    {
        type            calculated;
        value           nonuniform List<scalar> 0();
    }
    front
    {
        type            calculated;
        value           nonuniform List<scalar> 
32
(
1.040176
1.040176
1.040176
1.040176
1.040176
1.0402606
1.0402606
1.040176
1.040176
1.040176
1.040176
1.0402606
1.0402606
1.0402606
1.0402606
1.0402606
1.0402606
1.040176
1.040176
1.040176
1.040176
1.040176
1.040176
1.040176
1.040176
1.040176
1.040176
1.040176
1.040176
1.040176
1.040176
1.040176
)
;
    }
    bottom
    {
        type            calculated;
        value           nonuniform List<scalar> 
245
(
1.1242401
1.0646528
1.0944013
0.88557646
1.0646528
0.88557646
1.0658632
1.1302713
0.95574696
1.007915
1.0664808
1.1242401
1.0008251
1.0664808
0.84141862
1.0199683
1.0155823
0.99085281
1.1302713
0.97627922
1.0069451
0.84325848
0.96561345
0.99932689
0.97627922
1.0564889
0.99793122
1.0182845
1.0182845
0.84325848
1.0178297
0.99793122
1.0399146
1.0171328
0.84987835
0.90674331
1.0399146
1.0399146
0.99508728
1.0155823
1.0199683
1.0564889
0.95574696
0.95574696
0.95574696
0.83802318
1.0642156
1.0642156
1.002796
0.99932689
0.96561345
0.84715526
1.0171328
1.0069451
0.93154224
1.0146676
0.90674331
1.0564889
1.0069451
0.96129605
0.83802318
1.0219799
1.0325974
1.0325974
1.1302713
0.90210961
0.93154224
1.0325974
1.1427742
1.0219799
1.002796
1.0576778
1.0646528
1.0155823
1.0613833
1.0658632
1.0155823
0.99508728
1.0155823
0.99932689
1.002796
1.1302713
0.24276062
1.0247505
1.002796
1.0219799
0.99586512
1.1427742
0.85657555
0.90210961
0.24276062
0.24276062
1.1427742
0.24276062
0.24276062
0.98598953
0.85657555
1.0576778
0.24276062
0.24276062
1.0576778
0.24276062
0.99508728
1.0219799
1.026455
0.85657555
0.98598953
0.90210961
0.85657555
1.026455
0.96986458
0.96986458
1.1427742
1.0576778
0.92778731
0.92778731
1.1242401
1.0664808
1.0664808
1.1242401
1.1242401
1.0944013
0.88557646
0.88557646
0.88557646
1.0664808
1.0664808
1.0646528
0.89138438
0.89138438
0.88557646
1.01302
1.01302
1.01302
1.0664808
1.0182845
0.99793122
1.0008251
1.0008251
1.0008251
0.99793122
1.0178297
1.0664808
0.84141862
0.84141862
0.84141862
1.0199683
1.0199683
1.0199683
0.99085281
0.99085281
0.99085281
1.0171328
1.0171328
0.97627922
1.0069451
1.0171328
1.0171328
0.84325848
0.84325848
0.84325848
0.96561345
1.1110798
1.1110798
1.0146676
1.0146676
0.99932689
0.97627922
1.0399146
1.0146676
0.84325848
0.96129605
0.96129605
1.0178297
0.96129605
1.0069451
1.0642156
1.0642156
1.0178297
0.84987835
0.84987835
0.84987835
0.90674331
0.89138438
0.89138438
1.0247505
1.0247505
1.0199683
1.0564889
1.0325974
1.0325974
0.83802318
0.83802318
0.83802318
0.93154224
0.93154224
0.90210961
0.96561345
0.93154224
0.93154224
0.84715526
0.84715526
0.84715526
1.1110798
1.1110798
0.90674331
0.96129605
0.96129605
0.83802318
0.98598953
0.98598953
0.98598953
0.85657555
0.96986458
0.96986458
0.90210961
1.0247505
0.90210961
0.92778731
0.92778731
0.85657555
1.007915
1.007915
1.007915
0.99586512
1.0658632
1.0613833
1.026455
0.99586512
1.002796
0.99586512
0.99586512
1.026455
0.99793122
1.01302
1.01302
1.01302
1.01302
1.0182845
1.0613833
1.0613833
1.0155823
0.99508728
1.0658632
0.99508728
)
;
    }
    top
    {
        type            calculated;
        value           nonuniform List<scalar> 
94
(
1.0840579
1.0403045
1.0086938
1.0086938
1.0403045
1.0086938
1.0403045
1.0086938
0.98137177
1.0840579
1.0403045
1.0840579
1.0840579
1.0403045
1.0403045
0.98137177
1.0086938
1.0086938
1.0086938
0.98137177
1.0840579
1.0840579
1.0086938
0.98137177
1.0403045
1.0403045
1.0086938
1.0086938
1.0086938
0.98137177
1.0086938
1.0086938
1.0840579
1.0840579
1.0403045
0.98137177
0.98137177
0.98137177
0.98137177
1.0403045
1.0403045
1.0403045
0.98137177
1.0403045
1.0403045
1.0840579
1.0840579
1.0840579
1.0840579
1.0840579
1.0403045
1.0403045
1.0403045
0.98137177
0.98137177
1.0403045
1.0840579
1.0840579
1.0403045
1.0403045
1.0086938
0.98137177
1.0840579
1.0840579
1.0840579
1.0403045
1.0840579
1.0840579
1.0403045
1.0403045
1.0403045
1.0086938
1.0086938
0.98137177
0.98137177
1.0086938
1.0086938
1.0086938
1.0086938
1.0086938
1.0840579
1.0840579
1.0840579
1.0840579
1.0840579
1.0086938
1.0086938
1.0086938
1.0403045
1.0403045
0.98137177
0.98137177
1.0403045
1.0403045
)
;
    }
    tower
    {
        type            calculated;
        value           nonuniform List<scalar> 
510
(
1.0137233
1.0665632
1.0365319
1.0097321
1.0179433
1.0385711
0.99891122
0.99834624
1.0068106
0.99934385
0.99701348
0.99737392
1.0023742
0.99735493
0.9982268
1.0047854
0.99719705
0.99822964
0.99858605
0.99971597
0.99964623
0.99783082
0.99790607
0.9972756
0.99842162
0.99843337
0.99746186
0.99703435
0.9961277
0.99613943
0.99821539
0.99615707
0.99699342
1.0007797
1.0027793
1.0008517
0.99759455
0.99654605
0.99684285
0.99825686
0.99746123
0.9974801
0.99846721
0.99744054
1.033619
1.0049991
1.0025591
1.0052764
1.0035486
0.9970879
0.99633225
0.99620597
0.9982234
0.99741026
0.99736306
0.99811511
0.99859694
0.99963837
1.0029027
1.0010293
0.99780781
0.99722036
0.99647614
0.99678663
0.9984178
0.99740133
0.99743473
0.99605444
0.99606867
0.99626132
0.99613412
0.996082
0.99691571
0.99734588
0.99697202
0.97358295
0.97273054
0.97673331
0.97956637
0.9772474
0.97068927
0.97854178
0.97605024
0.9701834
0.97542749
0.99529192
1.010398
0.96929006
0.96027731
0.97818178
0.9608794
0.98438419
0.9984869
0.97452855
0.97549688
0.97196563
0.97458296
0.9449419
0.95110403
0.92958288
0.95335511
0.98046735
0.97792645
1.0401917
1.0461649
0.98469164
0.99384143
0.98553987
0.98124751
1.0094447
0.96521779
0.94539647
0.94746595
1.0081083
0.98249806
0.98461859
0.99133463
0.97557521
0.97888473
0.97128499
0.97237032
0.99034155
0.97272743
0.99067643
0.97305339
0.96958125
0.97180134
0.9858405
0.94601522
0.95210843
0.94440868
0.97750063
0.98070669
0.98111461
0.98197508
0.98057027
0.97668181
0.97897973
0.97652798
0.97762072
0.97416586
0.97679073
0.9749214
0.97358312
0.97954462
0.98221091
0.97970799
0.97870892
0.99218425
0.98668256
0.98715687
0.99238904
0.99020536
0.98254525
0.99047586
0.98050463
0.99797838
0.9972891
0.9963206
0.99868748
0.99852558
0.99643952
0.99842664
0.99702494
0.98688457
0.98809963
0.9985926
1.0033589
0.99777721
0.99630357
0.99793363
0.99552854
0.99787515
0.99726023
0.9905293
0.99830593
0.99679969
0.98260855
1.0021297
1.0075458
1.003298
0.99585905
0.99608379
0.99812606
0.99676509
0.986365
0.99989342
1.0084624
1.0053004
0.99588903
0.99718716
0.97922019
0.96084057
0.96768323
0.9747368
0.96957698
0.979508
0.97936695
0.97615031
0.97888511
0.95901442
0.95424316
0.97983188
0.9624581
0.95282886
0.99277518
0.98436186
0.99707499
0.99546891
0.98950677
0.99590553
0.99219782
0.99548984
0.99499391
0.96906844
0.9838711
0.97348754
0.99043633
0.98292208
0.98291114
0.96677286
0.97901574
0.96297663
0.99926239
1.0028015
1.0039525
0.99628211
1.0032705
0.9989849
0.99798694
0.99772207
0.99718006
0.97651145
0.94243148
0.94569421
0.98547283
0.97912152
0.97496632
0.96435049
0.96205166
0.98900002
0.98018869
0.98243847
0.97069578
0.97096671
0.96641002
0.96793317
0.97376105
0.93937596
0.93654881
0.99739006
0.99648316
0.99757853
0.99587479
1.0055835
1.0106115
1.0017131
1.0076565
1.0033392
1.0065739
1.0038956
0.97907506
0.97691868
0.98927854
0.99230141
0.99719105
0.99655124
1.0082617
1.0027139
1.0130802
1.008487
1.0108745
1.007429
1.0131934
1.0182802
0.95228051
0.96363554
0.95562114
0.97763675
0.95306609
0.94978045
0.96575601
0.96087775
0.95815981
0.95640469
0.95938606
0.96984127
0.97307263
0.96780828
0.9633442
0.97138794
0.96567438
0.97552418
0.97970314
0.97571128
0.97066939
0.97092249
0.97968161
0.97527275
0.97555416
0.97145917
0.97727258
0.97280137
0.97003472
0.96912252
0.97818544
0.97473645
0.97394058
0.9483914
0.94924931
0.96867244
0.97040183
0.95160275
0.95918402
0.94987967
0.95732618
0.94761785
0.97302426
0.93160838
0.93399275
0.95555013
0.94348283
0.94532919
0.92172753
0.95648399
0.95861158
0.96554385
0.98123775
0.97730056
0.97868435
0.97075034
0.96231486
0.97115289
0.92239241
0.92649294
0.93447047
0.91103001
0.98480843
0.98259642
0.98175505
0.98606317
0.9712173
0.96763068
0.92981721
0.93874615
0.92801935
0.94199615
0.9522951
0.94105818
0.99390353
0.99248273
0.9939296
0.98832814
0.99061662
0.98850593
0.99838523
0.99817915
0.99814948
0.99794734
0.9980613
0.99770983
0.9942684
0.99538736
0.99422109
0.98583704
0.98312668
0.98597254
0.99818499
0.99786235
0.99799753
0.99744842
0.99633031
0.99726778
0.99378239
0.99230558
0.9878486
0.99198017
0.98800317
0.99736764
0.99609606
0.99629396
0.99563754
0.99570674
0.99584302
0.99862379
0.99814679
0.9965416
0.99750147
0.99701375
0.97043974
0.99970777
1.001185
0.9971053
0.99666187
0.99528303
0.99733541
0.99242456
0.99344927
0.99406439
0.99712923
0.99535527
0.99578951
0.98547465
0.99587108
0.99593422
0.99839353
0.9976158
0.99672531
0.99679059
0.97526817
0.97858109
0.97978131
0.97988908
0.95283859
0.97835358
0.9552117
0.96913816
0.9756521
0.97486422
0.97312399
0.96963231
0.96398265
0.98952348
0.98375451
0.98793813
0.99417525
0.99594489
0.99268043
0.99532144
0.99470702
0.99461703
0.98862599
0.9928894
0.99232217
0.99591134
0.99493503
0.9947211
0.99245029
0.99364926
0.99382823
0.99383237
0.99522161
0.99407254
0.97063732
0.97558364
0.97652514
0.97204506
0.97854981
0.97747299
0.99055147
0.98833146
0.98846123
0.98311839
0.98592645
0.985994
0.96530495
0.97321321
0.97189377
0.97744369
0.97936216
0.97737563
0.96398465
0.97072229
0.97137383
1.0016393
0.99944384
0.99874779
1.001548
1.0035314
1.0018718
1.0028475
0.99946221
0.99906662
1.0012124
0.99545109
0.99800247
0.9979512
0.99774398
0.99794527
0.9977584
0.9976914
0.99783698
0.97782663
0.98297987
0.98202071
0.97635956
0.97961293
0.98095794
0.98111004
0.98379243
0.98455034
0.98185794
0.98553574
0.98512151
0.95810129
0.96453315
0.98577038
0.98606112
0.93116017
0.99384391
1.0111529
1.0052096
0.99782931
0.99724014
0.99748337
0.99613215
0.99648495
0.99706063
0.98140528
0.98069984
)
;
    }
    air_to_vegetation
    {
        type            calculated;
        value           nonuniform List<scalar> 
343
(
1.0825619
1.0388153
1.0856625
1.0856625
1.0388153
1.0856625
1.0856625
0.92701897
1.0388153
1.0825619
0.92701897
1.0856625
0.92701897
1.0388153
0.8114307
1.0388153
1.0442971
0.92701897
0.92701897
1.0388153
1.0388153
1.0856625
1.0388153
1.0856625
1.0856625
1.0856625
1.0125063
1.0125063
0.92701897
1.0388153
0.8114307
0.8114307
0.8114307
1.0856625
1.0856625
1.0856625
1.0388153
1.0388153
1.0825619
1.0856625
0.92701897
0.92701897
1.0125063
1.0856625
0.8114307
1.0825619
1.0856625
1.0125063
1.0125063
0.92701897
0.92701897
0.92701897
0.92701897
1.0825619
0.8114307
1.0388153
0.8114307
1.0125063
1.0333039
1.0125063
1.0125063
1.0333039
1.0442971
1.0125063
1.0856625
1.0856625
1.0125063
1.0125063
1.0125063
1.0125063
0.92701897
0.8114307
0.8114307
0.8114307
1.0388153
1.0388153
0.8114307
1.0388153
1.0388153
1.0388153
0.8114307
0.8114307
0.8114307
1.0825619
0.8114307
0.8114307
0.8114307
0.8114307
0.8114307
0.8114307
0.92701897
1.0333039
1.0125063
1.0125063
1.0125063
1.0825619
0.8114307
0.92701897
1.0333039
1.0333039
1.0333039
0.92701897
0.92701897
0.92701897
1.0333039
1.0333039
1.0333039
1.0333039
1.0125063
1.0333039
1.0125063
1.0125063
1.0442971
1.0825619
1.0442971
1.0442971
1.0825619
1.0825619
1.0442971
1.0442971
1.0333039
1.0442971
1.0442971
1.0333039
0.92701897
0.92701897
1.0825619
1.0825619
1.0825619
0.92701897
1.0442971
1.0388153
1.0388153
1.0388153
1.0388153
1.0825619
0.8114307
0.8114307
1.0388153
1.0388153
1.0388153
1.0442971
1.0442971
0.92701897
1.0856625
1.0388153
1.0856625
1.0388153
1.0388153
1.0388153
1.0856625
1.0856625
1.0388153
1.0388153
1.0825619
0.92701897
0.8114307
0.8114307
0.8114307
0.8114307
0.92701897
0.92701897
0.92701897
1.0856625
1.0856625
1.0856625
1.0856625
1.0388153
1.0856625
1.0856625
1.0856625
1.0856625
1.0856625
1.0856625
1.0856625
1.0388153
1.0388153
1.0388153
1.0388153
1.0388153
1.0856625
1.0125063
0.92701897
0.92701897
1.0825619
1.0825619
1.0442971
1.0442971
1.0825619
1.0856625
1.0856625
1.0125063
1.0856625
0.8114307
0.8114307
0.8114307
1.0825619
1.0825619
1.0825619
1.0825619
0.8114307
0.8114307
1.0856625
1.0125063
1.0856625
0.92701897
0.92701897
1.0825619
0.8114307
0.8114307
0.8114307
0.8114307
1.0825619
0.8114307
1.0333039
1.0333039
1.0333039
1.0333039
1.0333039
1.0442971
1.0333039
1.0442971
1.0333039
1.0856625
1.0856625
1.0856625
1.0856625
1.0856625
1.0856625
1.0856625
1.0125063
1.0125063
0.92701897
0.92701897
0.92701897
0.8114307
0.8114307
0.8114307
0.8114307
1.0388153
0.8114307
0.8114307
0.8114307
0.8114307
0.8114307
0.8114307
1.0825619
1.0825619
0.8114307
0.8114307
1.0825619
0.8114307
0.8114307
0.8114307
0.8114307
0.8114307
0.8114307
0.8114307
1.0125063
1.0825619
1.0125063
1.0125063
1.0442971
0.8114307
1.0442971
1.0442971
1.0333039
1.0333039
1.0442971
1.0442971
1.0442971
0.92701897
0.92701897
1.0333039
1.0125063
1.0825619
1.0825619
1.0125063
1.0125063
1.0125063
1.0825619
1.0825619
1.0825619
1.0825619
1.0825619
1.0825619
0.8114307
0.8114307
1.0442971
1.0442971
1.0442971
1.0442971
1.0442971
1.0442971
0.92701897
0.92701897
0.92701897
0.92701897
0.92701897
0.92701897
1.0333039
1.0333039
1.0333039
0.92701897
0.92701897
0.92701897
1.0333039
0.92701897
1.0333039
1.0333039
1.0333039
1.0333039
1.0333039
1.0333039
1.0333039
1.0125063
1.0125063
1.0125063
1.0442971
1.0125063
1.0333039
1.0442971
1.0125063
1.0442971
1.0442971
1.0442971
1.0442971
1.0825619
1.0825619
1.0442971
1.0442971
1.0442971
1.0442971
1.0442971
1.0442971
1.0825619
1.0825619
1.0825619
1.0825619
1.0825619
1.0442971
0.92701897
0.92701897
)
;
    }
    procBoundary5to0
    {
        type            processor;
        value           uniform 0;
    }
    procBoundary5to6
    {
        type            processor;
        value           uniform 0;
    }
    procBoundary5to8
    {
        type            processor;
        value           uniform 0;
    }
    procBoundary5to9
    {
        type            processor;
        value           uniform 0;
    }
}


// ************************************************************************* //
