/*--------------------------------*- C++ -*----------------------------------*\
  =========                 |
  \\      /  F ield         | OpenFOAM: The Open Source CFD Toolbox
   \\    /   O peration     | Website:  https://openfoam.org
    \\  /    A nd           | Version:  8
     \\/     M anipulation  |
\*---------------------------------------------------------------------------*/
/*   Windows 32 and 64 bit porting by blueCAPE: http://www.bluecape.com.pt   *\
|  Based on Windows porting (2.0.x v4) by Symscape: http://www.symscape.com   |
\*---------------------------------------------------------------------------*/
FoamFile
{
    version     2.0;
    format      ascii;
    class       volScalarField;
    location    "0/vegetation";
    object      viewFactorField;
}
// * * * * * * * * * * * * * * * * * * * * * * * * * * * * * * * * * * * * * //

dimensions      [0 0 0 0 0 0 0];

internalField   uniform 0;

boundaryField
{
    left
    {
        type            calculated;
        value           nonuniform List<scalar> 
61
(
1.0347781
1.0170737
1.0170737
1.0170737
1.0347781
1.0347781
1.0170737
1.0170737
1.0170737
1.0170737
1.0170737
1.0170737
1.0170737
1.0347781
1.0347781
1.0170737
1.0347781
1.0347781
1.0170737
1.0170737
1.0170737
1.0347781
1.0347781
1.0170737
1.0170737
1.0170737
1.0347781
1.0347781
1.0347781
1.0347781
1.0347781
1.0347781
1.0170737
1.0170737
1.0170737
1.0170737
1.0170737
1.0170737
1.0170737
1.0170737
1.0170737
1.0170737
1.0170737
1.0170737
1.0170737
1.0170737
1.0170737
1.0347781
1.0347781
1.0347781
1.0347781
1.0347781
1.0347781
1.0347781
1.0347781
1.0170737
1.0170737
1.0170737
1.0170737
1.0170737
1.0170737
)
;
    }
    right
    {
        type            calculated;
        value           nonuniform List<scalar> 0();
    }
    back
    {
        type            calculated;
        value           nonuniform List<scalar> 0();
    }
    front
    {
        type            calculated;
        value           nonuniform List<scalar> 0();
    }
    bottom
    {
        type            calculated;
        value           nonuniform List<scalar> 
258
(
1.0749084
1.0099393
1.0574143
1.0099393
1.0099393
1.0099393
1.0749084
1.0406747
1.0406747
1.0406747
1.0749084
1.0406747
1.0317224
1.0317224
1.0124407
0.98942677
1.0175329
1.0124407
0.98595288
0.98595288
1.071944
0.98942677
1.0340114
0.91360914
1.071944
1.0693595
1.0723886
1.1056806
1.0476591
1.0723886
1.0888908
1.0714565
1.0120584
1.0714565
0.89426382
0.88606995
0.88459221
0.86567317
1.1257583
1.0692075
1.0120584
1.1257583
0.95178705
0.88606995
0.86770656
1.0483455
1.0693595
1.1000004
1.1000004
1.0483455
1.0423937
1.0105693
0.96199568
0.92960539
0.88459221
0.96199568
0.92960539
1.0888908
1.0612564
0.95524537
0.95795635
1.0935232
1.0660876
0.88606995
0.89426382
1.0064171
0.98445671
0.86770656
0.88606995
1.0683816
0.92960539
0.96199568
1.0317224
0.86567317
0.88459221
0.95178705
0.98445671
0.88459221
0.92960539
1.071944
0.89426382
0.96519199
1.0373241
0.86567317
0.95178705
0.96212946
0.86770656
0.93378009
0.93378009
0.91094179
0.91094179
1.0464537
1.0105693
1.0175329
1.0612564
1.0612564
1.1056806
1.0423937
0.96199568
0.91360914
0.91360914
1.0749084
1.0124407
1.0175329
1.0120584
1.0714565
0.98445671
1.0574143
1.0574143
1.0574143
1.0476591
1.0476591
1.0064171
1.1257583
1.0120584
0.98942677
1.0124407
1.0749084
0.84032972
0.84197649
1.0175329
1.1000004
1.1000004
0.84197649
0.84197649
1.0476591
1.0476591
0.98942677
1.0683816
1.0683816
1.0683816
0.98445671
1.0714565
1.0692075
1.1257583
1.0317224
1.0483455
1.0693595
1.0693595
1.0693595
1.0693595
1.0723886
1.0693595
1.0693595
1.0175329
1.0175329
1.0175329
1.1000004
1.0483455
1.0423937
1.0423937
0.98595288
1.0105693
1.0423937
1.0340114
1.0340114
1.0723886
1.0340114
1.0340114
1.0340114
1.071944
1.0660876
1.0935232
0.84032972
0.84032972
1.1056806
1.1056806
1.1056806
0.84197649
1.0888908
0.96260116
0.96260116
0.96260116
1.0120584
1.0120584
1.0120584
0.96260116
1.0714565
1.0714565
0.85820864
0.85820864
0.85820864
1.0692075
1.0692075
1.0692075
0.91961374
0.91961374
1.0120584
0.85820864
0.91961374
0.91961374
1.0693595
0.84032972
1.0105693
1.0423937
1.0423937
1.0888908
0.91360914
1.0888908
1.0888908
1.0888908
0.95524537
0.95524537
0.95524537
0.95795635
0.95795635
0.95795635
1.0935232
1.0935232
1.0935232
1.0660876
1.0660876
1.0660876
0.96519199
0.96519199
0.96519199
1.0064171
1.0064171
0.89426382
0.86770656
1.0349489
1.0349489
0.96212946
0.96212946
0.96212946
0.91094179
1.0683816
1.0683816
1.0406747
1.0406747
0.91094179
0.86567317
1.0317224
1.0317224
1.0373241
1.0373241
1.0373241
1.0349489
1.0349489
0.95178705
0.93378009
1.1076435
1.1076435
1.1076435
1.1076435
0.93378009
1.0464537
1.0464537
1.0464537
1.0175329
1.0105693
0.98595288
1.0476591
1.0612564
1.0340114
1.1000004
1.1000004
1.1000004
)
;
    }
    top
    {
        type            calculated;
        value           uniform 1.0171281;
    }
    tower
    {
        type            calculated;
        value           nonuniform List<scalar> 
985
(
0.90703152
0.98836609
1.00548
1.0097132
1.0184885
0.98181681
0.95561223
0.94379043
1.030389
1.0364299
0.98462124
1.005478
0.99621546
0.98623881
1.0188692
1.0040613
1.0236856
1.0083974
1.0107226
1.0209484
1.0196401
0.97627374
0.97789107
0.94971575
0.96470057
0.9267376
0.93316509
1.0527435
1.0316175
0.98520841
1.0343717
0.98310405
1.0033399
1.0014282
1.0018568
0.99429987
1.0082076
0.98434234
1.0137055
0.98950793
1.0148429
0.9887025
0.97201626
0.99277616
0.95698009
0.99678103
0.99550238
1.0018343
0.9976924
0.99322926
0.99706741
0.99481317
1.0035982
0.98271187
1.0207588
1.0081351
0.95007819
0.97606948
0.99792629
0.99756108
0.99342062
0.9810529
0.99416056
1.0010454
0.99119515
0.99043713
0.99652896
0.9968059
0.99515152
0.99440903
0.99737519
0.99728486
1.0003077
1.0000625
1.0016486
1.0006977
0.9981924
1.0007521
0.99887325
1.0007566
0.99842555
0.96459547
0.9694764
0.97985755
0.96495956
0.97541592
0.97641692
0.97405815
0.97777406
1.0232361
1.0133983
1.0130824
1.0240832
0.94834734
0.94650121
0.931105
0.95927468
0.99113557
1.0032845
1.002205
0.99333799
0.96359919
0.97942539
0.97733199
0.97513255
0.91996926
0.97666463
0.97674163
0.92024737
0.92107523
0.95999984
0.908582
1.014632
0.92306141
0.90853862
1.0149698
1.0209054
1.0117081
1.0216693
0.96789059
0.96014694
0.98961709
1.0075461
0.97486069
0.97305906
1.0148871
0.99727219
0.99922734
1.0151048
1.0145956
0.99878093
1.0230067
1.0128843
0.99127772
1.0007666
0.99271436
0.99567167
0.99061238
0.99215341
0.97570802
0.9821598
1.0060673
0.99957238
1.0078819
0.95119138
0.93211278
0.97694857
0.95562939
0.95456318
0.97588881
0.97238096
0.95307
0.9906632
1.0018883
0.97755744
0.97318207
0.97368389
0.98108376
0.97698603
0.97216418
0.99150977
1.0143902
0.99647135
1.0005113
0.99600229
0.99974012
1.0236208
0.99238458
0.99849882
0.94886402
1.0005679
0.99790785
0.99583809
0.99535969
1.0006422
0.99726178
0.9993337
0.99400644
1.0205569
1.01467
1.0215666
1.0113699
0.95851924
0.96735627
0.99767667
0.93979645
1.0007323
0.99744601
0.99508327
1.0010651
1.0079145
0.99938953
0.99950489
0.9925294
0.9921255
0.99618422
0.9970222
0.9957346
0.993439
0.99749146
0.99718125
0.99150906
0.99078042
0.99167581
0.99129229
0.99405295
0.99216335
0.99287974
0.99329231
1.0021468
0.98083443
1.0228005
1.0061598
0.91737906
0.89723576
0.94704028
0.9740266
0.92369339
1.0155238
1.013013
1.0153441
1.0319636
1.0422597
1.0111578
1.0429069
0.98071879
1.0346821
0.99395754
0.99902784
1.0293971
0.94405451
0.90471852
0.94170144
0.93808905
0.92570975
0.99612149
1.0085329
0.99089156
0.99287137
1.0199682
1.0050569
1.0032222
1.0149055
1.0219513
1.0038529
1.020167
1.007179
0.95840819
0.96613115
0.93900235
0.92570583
0.99583486
0.99171986
0.9947532
0.99529077
0.99584241
0.98215861
1.0326577
1.0346683
0.97702253
1.0018185
0.9967632
1.0011332
1.0029267
1.0522897
0.98043068
0.96355322
0.97590347
0.97020524
0.94176107
0.97792179
0.92996428
0.95575136
0.98706605
0.99142345
0.98759859
0.99367088
0.98720489
0.99129705
0.9891989
0.98849055
0.99191423
0.99267117
0.99452113
0.99357712
1.0531879
1.0637861
0.98833644
1.0043526
1.0168543
1.026268
1.0364062
1.0278597
1.0310429
1.064285
0.97490327
1.006928
0.91149891
0.9508067
0.90459514
0.93466665
0.95532716
0.99592139
0.99239715
0.99421728
0.98138945
0.88618191
0.97868105
0.89694149
0.93818105
0.97036647
0.93506485
0.92170492
0.98053936
0.9594997
0.98784211
0.98706002
0.98782198
0.98748667
0.98847781
0.98829631
0.98858504
0.98682876
0.98851431
0.98805592
0.98928962
0.98976048
0.99053088
1.0435562
1.0472804
1.0574753
1.0615194
0.99814978
1.0118235
1.0316062
1.0165889
1.0204144
1.0249746
1.0440815
1.035647
1.0552572
0.99888385
1.0155115
0.99456361
1.0136787
1.033839
0.97286649
0.97981752
1.0348576
0.97623772
1.0577855
0.98434504
1.0614547
0.99836369
1.0288295
0.9696074
1.0252974
0.99993697
1.0032853
1.014325
1.0153871
1.036424
1.0398727
1.0073328
1.0045352
0.99182912
0.99181607
0.99232899
0.9916657
0.99259123
0.99478269
0.99473442
0.99542823
0.995703
0.99058781
0.99203531
0.99246756
0.9939713
0.9930912
0.9945424
1.0189883
1.0127694
0.9565975
0.96672627
1.001008
0.99956282
0.99486174
0.99372747
0.98806701
0.98967562
0.98276494
0.88409401
0.99751894
0.99806921
1.0032837
0.99861508
0.94753243
0.96206157
0.94363991
0.98448702
0.98987759
0.98988336
0.99106599
0.99200491
0.95409658
0.93294011
0.92646293
0.99592364
0.99943883
0.97985106
0.9792432
0.99300888
0.99905475
0.96415422
0.95389305
0.96342135
0.91593449
0.92238086
0.99086194
0.99054649
0.99180826
0.99213374
0.99013304
0.99251276
0.9940591
1.0067886
0.99533416
1.0201598
0.99023313
1.023829
0.96642134
0.99622069
0.98731164
0.98013977
1.0001602
0.99470283
0.989391
1.0012384
0.99065642
0.92518001
1.0106639
0.93791448
0.99556295
0.9911934
0.99518159
0.99549511
0.91828404
0.92577212
0.99243815
0.99078294
0.99047756
0.92300489
0.99727086
0.97622538
0.89808959
0.99138391
0.99510801
0.99559316
0.99649111
0.99405472
0.9907084
0.99513966
0.99251106
0.99668081
0.99617233
0.99305637
0.9936317
0.99675611
0.9966416
0.98882414
0.98870689
0.98959325
0.9888977
0.99110159
0.9897597
0.99036118
0.99459139
0.99206089
0.98751795
0.99108298
0.98758851
0.98619592
0.98926794
0.99293992
0.99512752
0.99553377
0.99539422
1.0073436
0.92456503
0.93405354
1.0095868
0.98950672
0.9894267
0.98992185
0.99331915
0.93309746
0.97884838
0.98457155
0.99559864
0.91483386
0.99582698
0.91822637
0.99098257
0.91847006
0.99184801
0.91979442
0.99471235
0.99522524
0.91288601
0.91021631
0.99624395
0.93324507
0.91529588
0.98830023
0.98000356
0.93765448
0.93410569
0.9951793
0.9496436
0.98725122
0.99048139
0.9896369
0.98761298
0.99073834
0.99171929
0.98748715
0.98855044
0.99109156
0.99015593
0.9185345
0.98966913
0.91040771
0.95693044
0.95726297
0.98769429
0.99305356
0.99359627
0.99222607
0.99916323
0.97099733
0.9913335
0.98286226
1.0000854
0.97899753
0.99681266
0.91800079
0.8967927
0.90444462
0.9227735
0.92637478
0.90568007
0.91097889
0.92072994
0.97748922
0.96242362
0.91875398
0.93453962
0.90638566
0.92134975
0.94704904
0.94237486
0.97122758
0.97320719
0.99747149
1.012094
1.012233
1.0218774
0.99048167
0.98552892
0.99598594
0.99595658
0.92713539
0.92243457
0.99246404
0.99303397
0.90596009
0.92404506
0.99418787
0.99364059
0.90904395
0.90786779
0.9116764
0.89253163
0.91667208
0.89556298
0.90015361
0.88988177
0.8895017
0.90400527
0.91454776
0.89014308
0.91099036
0.89764943
0.93556028
0.90176873
0.889219
0.925911
0.92610235
0.93715254
1.002847
0.99112184
0.92885698
0.94875036
0.95109249
0.97031535
1.001019
0.98949095
0.97056912
0.9787502
0.98804384
0.98862214
0.98716608
0.98860025
0.98792418
0.98732586
0.98860231
0.98937608
0.98809756
0.98913301
0.98863873
0.98987831
0.98659246
0.99001982
0.98863379
0.98872536
0.98665308
0.93017633
0.89901529
0.97949925
0.97558693
0.97883461
0.98788201
0.90324236
0.92385836
0.90338828
0.92458729
0.90561976
0.89573232
0.90185166
0.90043714
0.93767059
0.9263597
0.92669078
0.93638097
0.97022576
0.97974258
0.9814027
0.96563998
0.95898644
0.94876609
0.95317444
0.95525052
0.94317995
0.91159857
0.92529813
0.93112984
0.95274142
0.93141653
0.9397867
0.94269898
0.98849757
0.99002997
0.99166366
0.99120948
0.99237167
0.92383286
0.91304736
0.91890864
0.9366458
0.86628637
0.87891076
0.88508458
0.86294415
0.88090934
0.94344261
0.90071977
0.88599314
0.92270003
0.90455116
0.93518505
0.89184252
0.91720332
0.94998513
0.95279672
0.91674064
0.91428163
0.91729408
0.93903727
0.93651721
0.91968322
0.91130619
0.93473982
0.94400898
0.91517969
0.92110871
0.94146279
0.9398634
0.91233316
0.90985255
0.93302744
0.9350696
0.98698718
0.99440635
0.97566228
0.97757105
0.96000955
0.93718894
0.94029512
0.95695754
0.92481751
0.92104435
0.94546305
0.94223319
0.9472504
0.96649417
0.96309677
0.94396722
0.95044484
0.93556735
0.92332846
0.96095705
0.93091987
0.8993539
0.95275309
0.92149092
0.95697327
0.96646362
0.93566522
0.90705258
0.98982476
0.994851
0.96602893
0.96259288
0.90621222
0.92531732
0.9507197
0.9263815
0.95952265
0.93308869
0.95786592
0.93021409
0.96437918
0.92166711
0.94498185
0.93428787
0.95314931
0.93427042
0.95453904
0.93230944
0.90553306
0.90766653
0.9310228
0.9287562
0.9505884
0.92545785
0.92900249
0.94792353
0.99176687
1.0243333
1.0129021
0.99578016
0.9953959
1.0079606
0.99013447
0.9910667
0.95579388
0.9461742
0.92580983
0.95015309
0.93061638
0.94061803
0.91415884
0.89749287
0.94287046
0.9516969
0.99195376
0.99153401
0.99464265
0.99501814
0.99633246
0.93293807
0.98925095
0.99590684
0.99376539
0.99293972
0.99249908
0.98633243
0.98880583
0.9899976
0.99115038
0.98454593
0.98490232
0.91225298
0.90898656
0.93988058
0.95961981
0.95968799
0.95916242
0.92124289
0.91952144
0.92133764
0.90620758
0.99680604
0.99533362
0.9953368
0.99848775
1.0028755
0.99501088
0.99870298
0.93732364
0.95059509
0.93062418
0.96541268
0.9569559
0.99786565
0.93810069
0.97496583
0.95466572
0.92180613
0.97506227
1.0169892
0.98931992
0.99004483
0.98930817
0.99002233
0.99063188
0.99040705
0.99172698
0.99346742
0.90854797
0.91488926
0.91204342
0.90977209
0.97471538
0.92372706
0.91974765
0.93883597
0.91581193
0.9230158
0.91432917
0.92169544
0.94474551
0.93494586
1.0106084
1.020287
1.0161052
1.0127422
0.9878846
0.9824338
0.97818975
0.98407524
0.96631986
0.96870993
0.96806203
0.93449
0.99490286
1.0185009
1.015197
0.99151498
0.99598582
0.99620802
0.9095912
0.92231113
0.93131012
0.91948698
0.90999695
0.93633621
0.94375161
0.91703672
0.90413122
0.89890372
0.90787497
0.90345388
0.92022749
0.8971222
0.92873158
0.92226213
0.99722651
0.99544301
0.97229836
0.93080152
0.9708384
0.95600541
0.95853112
0.97106196
0.99922476
0.99126037
0.98912558
1.0012571
0.96836763
0.97649537
0.97425498
0.96582977
0.99019567
0.99120388
0.98990413
0.9902439
0.99096921
0.99150625
0.99273696
0.99124352
0.98940953
0.98947828
0.9304709
0.93612995
0.89872691
0.89360347
0.96200821
0.97327132
0.93694713
0.92487048
1.0095882
1.0136884
0.97444505
0.96432872
0.95977173
0.93953606
0.90302221
0.92314095
1.0019868
0.99720465
0.94279162
0.95662343
0.9473305
0.95194255
0.93900517
0.96195242
0.97628374
0.98324614
0.93640203
0.92724525
0.91137796
0.92565037
0.89271931
0.91158023
0.93815282
0.92236028
0.86052561
0.8987005
0.92218946
0.9004724
0.89396863
0.86934948
0.9925069
0.99303271
0.99413086
0.99352806
1.0129155
1.0174968
0.98793116
0.9837586
0.96703029
0.95298979
0.96881263
0.95098041
0.96373699
0.94361007
0.94745196
0.95977649
0.96315851
0.94487117
0.96120516
0.94773726
0.96861168
0.93944072
0.94717354
0.95201166
0.99763812
0.98507594
0.98277627
0.99895459
0.99597503
0.99625545
0.99438646
0.99355075
0.99667973
0.99666816
0.99307146
0.99130679
1.0021618
0.99032251
0.99117466
0.99233132
0.99161075
0.99195323
)
;
    }
    air_to_vegetation
    {
        type            calculated;
        value           nonuniform List<scalar> 0();
    }
    procBoundary1to0
    {
        type            processor;
        value           uniform 0;
    }
    procBoundary1to3
    {
        type            processor;
        value           uniform 0;
    }
    procBoundary1to4
    {
        type            processor;
        value           uniform 0;
    }
    procBoundary1to6
    {
        type            processor;
        value           uniform 0;
    }
}


// ************************************************************************* //
